8
Lattice="16.0 0.0 0.0 0.0 16.0 0.0 0.0 0.0 16.0" Properties=species:S:1:pos:R:3:forces:R:3:magmoms:R:1 energy=-7.280770079059576 dipole="0.015980963681380796 -0.0059816727091274256 -0.003119012434044018" magmom=0.0 free_energy=-7.280771777103004 pbc="F F F"
Na       9.17249587       7.65140297      10.49649400      -0.00809595       0.00292355       0.00606820       0.00000000
Na       7.69662982       8.98047615       6.28409501      -0.00894576       0.00319966       0.00178557       0.00000000
Na      10.52770121      10.02282104       8.19708120       0.00889710      -0.00114311      -0.00338372       0.00000000
Na      10.65776477       7.86855879       5.50734858      -0.00299604       0.00057416       0.00607976       0.00000000
Na      11.78328760       6.85400771       8.72227463      -0.00530908       0.00251894      -0.00166315       0.00000000
Na       7.53023782      10.47532017       9.38715539       0.00290774      -0.00568884      -0.00290962       0.00000000
Na       6.17309660       7.23800958       8.84225969       0.00741011       0.00309969      -0.00212944       0.00000000
Na       8.74901306       5.78360586       7.48230574       0.00746654      -0.00530680      -0.00421457       0.00000000
