
  ___ ___ ___ _ _ _  
 |   |   |_  | | | | 
 | | | | | . | | | | 
 |__ |  _|___|_____|  22.8.0
 |___|_|             

User:   patriku@vera22-1
Date:   Sun Feb 26 12:39:13 2023
Arch:   x86_64
Pid:    2386570
CWD:    /cephyr/users/patriku/Vera/Assignment4/task6_vera/Pt
Python: 3.10.4
gpaw:   /apps/Arch/software/GPAW/22.8.0-foss-2022a/lib/python3.10/site-packages/gpaw
_gpaw:  /apps/Arch/software/GPAW/22.8.0-foss-2022a/lib/python3.10/site-packages/
        _gpaw.cpython-310-x86_64-linux-gnu.so
ase:    /apps/Arch/software/ASE/3.22.1-foss-2022a/lib/python3.10/site-packages/ase (version 3.22.1)
numpy:  /apps/Arch/software/SciPy-bundle/2022.05-foss-2022a/lib/python3.10/site-packages/numpy (version 1.22.3)
scipy:  /apps/Arch/software/SciPy-bundle/2022.05-foss-2022a/lib/python3.10/site-packages/scipy (version 1.8.1)
libxc:  5.2.3
units:  Angstrom and eV
cores: 30
OpenMP: False
OMP_NUM_THREADS: 1

Input parameters:
  kpts: [4 4 1]
  xc: PBE

System changes: positions, numbers, cell, pbc, initial_charges, initial_magmoms 

Initialize ...

species:
  Pt:
    name: Platinum
    id: 5ed695806aff0c961dba1a84acd7f4b2
    Z: 78.0
    valence: 16
    core: 62
    charge: 0.0
    file: /apps/Common/software/GPAW-setups/0.9.20000/Pt.PBE.gz
    compensation charges: {type: gauss,
                           rc: 0.41,
                           lmax: 2}
    cutoffs: {filter: 2.26,
              core: 2.26}
    valence states:
      #              energy  rcut
      - 6s(1.00)    -5.628   1.307
      - 5p(6.00)   -56.051   1.371
      - 6p(0.00)    -0.845   1.371
      - 5d(9.00)    -6.153   1.307
      -  s          21.583   1.307
      -  d          21.058   1.307
  
    # Using partial waves for Pt as LCAO basis

  O:
    name: Oxygen
    id: 32ecd46bf208036f09c70b0ec9a88b78
    Z: 8.0
    valence: 6
    core: 2
    charge: 0.0
    file: /apps/Common/software/GPAW-setups/0.9.20000/O.PBE.gz
    compensation charges: {type: gauss,
                           rc: 0.21,
                           lmax: 2}
    cutoffs: {filter: 1.17,
              core: 0.83}
    valence states:
      #              energy  rcut
      - 2s(2.00)   -23.961   0.688
      - 2p(4.00)    -9.029   0.598
      -  s           3.251   0.688
      -  p          18.182   0.598
      -  d           0.000   0.619
  
    # Using partial waves for O as LCAO basis

  C:
    name: Carbon
    id: 4aa54d4b901d75f77cc0ea3eec22967b
    Z: 6.0
    valence: 4
    core: 2
    charge: 0.0
    file: /apps/Common/software/GPAW-setups/0.9.20000/C.PBE.gz
    compensation charges: {type: gauss,
                           rc: 0.20,
                           lmax: 2}
    cutoffs: {filter: 1.14,
              core: 1.14}
    valence states:
      #              energy  rcut
      - 2s(2.00)   -13.751   0.635
      - 2p(2.00)    -5.284   0.635
      -  s          13.461   0.635
      -  p          21.927   0.635
      -  d           0.000   0.635
  
    # Using partial waves for C as LCAO basis

Reference energy: -13513203.275138  # eV

Spin-paired calculation

Convergence criteria:
 Maximum [total energy] change in last 3 cyles: 0.0005 eV / electron
 Maximum integral of absolute [dens]ity change: 0.0001 electrons / valence electron
 Maximum integral of absolute [eigenst]ate change: 4e-08 eV^2 / valence electron
 Maximum number of scf [iter]ations: 333
 (Square brackets indicate name in SCF output, whereas a 'c' in
 the SCF output indicates the quantity has converged.)

Symmetries present (total): 1

  ( 1  0  0)
  ( 0  1  0)
  ( 0  0  1)

16 k-points: 4 x 4 x 1 Monkhorst-Pack grid
8 k-points in the irreducible part of the Brillouin zone
       k-points in crystal coordinates                weights
   0:     0.12500000   -0.37500000    0.00000000          2/16
   1:     0.12500000   -0.12500000    0.00000000          2/16
   2:     0.12500000    0.12500000    0.00000000          2/16
   3:     0.12500000    0.37500000    0.00000000          2/16
   4:     0.37500000   -0.37500000    0.00000000          2/16
   5:     0.37500000   -0.12500000    0.00000000          2/16
   6:     0.37500000    0.12500000    0.00000000          2/16
   7:     0.37500000    0.37500000    0.00000000          2/16

Wave functions: Uniform real-space grid
  Kinetic energy operator: 8*3+1=25 point O(h^6) finite-difference Laplacian
  ScaLapack parameters: grid=1x1, blocksize=None
  Wavefunction extrapolation:
    Improved wavefunction reuse through dual PAW basis 

Occupation numbers: Fermi-Dirac:
  width: 0.1000  # eV
 

Eigensolver
   Davidson(niter=2) 

Densities:
  Coarse grid: 36*36*144 grid
  Fine grid: 72*72*288 grid
  Total Charge: 0.000000 

Density mixing:
  Method: separate
  Backend: pulay
  Linear mixing parameter: 0.05
  old densities: 5
  Damping of long wavelength oscillations: 50 

Hamiltonian:
  XC and Coulomb potentials evaluated on a 72*72*288 grid
  Using the PBE Exchange-Correlation functional
  Interpolation: tri-quintic (5. degree polynomial)
  Poisson solver: FastPoissonSolver using
    Stencil: 8*3+1=25 point O(h^6) finite-difference Laplacian
    FFT axes: [0, 1, 2]
    FST axes: []
 

XC parameters: PBE with 2 nearest neighbor stencil

Memory estimate:
  Process memory now: 225.39 MiB
  Calculator: 287.04 MiB
    Density: 12.81 MiB
      Arrays: 2.49 MiB
      Localized functions: 9.37 MiB
      Mixer: 0.96 MiB
    Hamiltonian: 2.21 MiB
      Arrays: 1.62 MiB
      XC: 0.00 MiB
      Poisson: 0.00 MiB
      vbar: 0.58 MiB
    Wavefunctions: 272.02 MiB
      Arrays psit_nG: 206.46 MiB
      Eigensolver: 63.70 MiB
      Projections: 0.56 MiB
      Projectors: 1.30 MiB

Total number of cores used: 30
Parallelization over k-points: 2
Domain decomposition: 1 x 3 x 5

Number of atoms: 29
Number of atomic orbitals: 332
Number of bands in calculation: 270
Number of valence electrons: 442
Bands to converge: occupied

... initialized

Initializing position-dependent things.

Density initialized from atomic densities
Creating initial wave functions:
  270 bands from LCAO basis set

                                            
                                            
                                            
                                            
                                            
                                            
                     O                      
                     C                      
                                            
                 Pt     Pt     Pt           
            Pt     Pt     Pt                
                  Pt     Pt    Pt           
       Pt    PPt    PPt    Pt               
                                            
        Pt     Pt    PPt    Pt    Pt        
                                            
                Pt     Pt     Pt            
           Pt     Pt     Pt                 
                                            
                                            
                                            
                                            

Positions:
   0 Pt     1.393000    0.804249   11.948320    ( 0.0000,  0.0000,  0.0000)
   1 Pt     4.179001    0.804249   11.948320    ( 0.0000,  0.0000,  0.0000)
   2 Pt     6.965002    0.804249   11.948320    ( 0.0000,  0.0000,  0.0000)
   3 Pt     2.786001    3.216997   11.948320    ( 0.0000,  0.0000,  0.0000)
   4 Pt     5.572001    3.216997   11.948320    ( 0.0000,  0.0000,  0.0000)
   5 Pt     8.358002    3.216996   11.948320    ( 0.0000,  0.0000,  0.0000)
   6 Pt     4.179001    5.629744   11.948320    ( 0.0000,  0.0000,  0.0000)
   7 Pt     6.965002    5.629744   11.948320    ( 0.0000,  0.0000,  0.0000)
   8 Pt     9.751003    5.629744   11.948320    ( 0.0000,  0.0000,  0.0000)
   9 Pt    -0.000000    1.608498   14.274778    ( 0.0000,  0.0000,  0.0000)
  10 Pt     2.786001    1.608498   14.274778    ( 0.0000,  0.0000,  0.0000)
  11 Pt     5.572001    1.608498   14.274778    ( 0.0000,  0.0000,  0.0000)
  12 Pt     1.393000    4.021246   14.274778    ( 0.0000,  0.0000,  0.0000)
  13 Pt     4.179001    4.021246   14.274778    ( 0.0000,  0.0000,  0.0000)
  14 Pt     6.965002    4.021246   14.274778    ( 0.0000,  0.0000,  0.0000)
  15 Pt     2.786001    6.433993   14.274778    ( 0.0000,  0.0000,  0.0000)
  16 Pt     5.572001    6.433993   14.274778    ( 0.0000,  0.0000,  0.0000)
  17 Pt     8.358002    6.433993   14.274778    ( 0.0000,  0.0000,  0.0000)
  18 Pt    -0.000000   -0.000000   16.601199    ( 0.0000,  0.0000,  0.0000)
  19 Pt     2.786001   -0.000000   16.601199    ( 0.0000,  0.0000,  0.0000)
  20 Pt     5.572001   -0.000000   16.601199    ( 0.0000,  0.0000,  0.0000)
  21 Pt     1.393000    2.412747   16.601199    ( 0.0000,  0.0000,  0.0000)
  22 Pt     4.179001    2.412747   16.601199    ( 0.0000,  0.0000,  0.0000)
  23 Pt     6.965002    2.412747   16.601199    ( 0.0000,  0.0000,  0.0000)
  24 Pt     2.786001    4.825495   16.601199    ( 0.0000,  0.0000,  0.0000)
  25 Pt     5.572001    4.825495   16.601199    ( 0.0000,  0.0000,  0.0000)
  26 Pt     8.358002    4.825495   16.601199    ( 0.0000,  0.0000,  0.0000)
  27 O      5.000000    3.000000   20.075170    ( 0.0000,  0.0000,  0.0000)
  28 C      5.000000    3.000000   18.924830    ( 0.0000,  0.0000,  0.0000)

Unit cell:
           periodic     x           y           z      points  spacing
  1. axis:    yes    8.358002    0.000000    0.000000    36     0.2011
  2. axis:    yes    4.179001    7.238242    0.000000    36     0.2011
  3. axis:    yes    0.000000    0.000000   28.549520   144     0.1983

  Lengths:   8.358002   8.358002  28.549520
  Angles:   90.000000  90.000000  60.000000

Effective grid spacing dv^(1/3) = 0.2100

     iter     time        total  log10-change:
                         energy  eigst   dens
iter:   1 12:39:53  -189.972437
iter:   2 12:40:24  -188.625590  -0.50  -1.42
iter:   3 12:40:54  -185.561414  -1.28  -1.45
iter:   4 12:41:26  -180.152666  -1.03  -1.52
iter:   5 12:41:56  -180.612100  -1.50  -1.85
iter:   6 12:42:27  -179.766728  -2.22  -1.96
iter:   7 12:42:57  -179.714277  -2.74  -2.14
iter:   8 12:43:29  -179.733854c -3.02  -2.20
iter:   9 12:43:59  -179.691587c -2.71  -2.25
iter:  10 12:44:30  -179.632537c -2.46  -2.49
iter:  11 12:45:00  -179.627766c -3.34  -2.85
iter:  12 12:45:30  -179.629402c -3.58  -2.92
iter:  13 12:46:00  -179.636158c -3.70  -3.02
iter:  14 12:46:31  -179.628539c -3.92  -2.92
iter:  15 12:47:02  -179.628850c -4.39  -3.20
iter:  16 12:47:36  -179.629896c -4.38  -3.24
iter:  17 12:48:06  -179.630243c -4.78  -3.38
iter:  18 12:48:37  -179.630665c -4.77  -3.51
iter:  19 12:49:09  -179.630584c -5.51  -3.64
iter:  20 12:49:41  -179.630494c -5.41  -3.68
iter:  21 12:50:11  -179.630384c -5.66  -3.68
iter:  22 12:50:42  -179.630403c -5.92  -3.73
iter:  23 12:51:14  -179.630374c -6.30  -4.01c
iter:  24 12:51:45  -179.630236c -6.48  -4.14c
iter:  25 12:52:18  -179.630119c -6.51  -4.34c
iter:  26 12:52:49  -179.630079c -6.92  -4.60c
iter:  27 12:53:21  -179.630057c -7.33  -4.70c
iter:  28 12:53:51  -179.630033c -7.42c -4.73c

Converged after 28 iterations.

Dipole moment: (-2.602321, -1.494082, 0.116512) |e|*Ang

Energy contributions relative to reference atoms: (reference = -13513203.275138)

Kinetic:       -290.800733
Potential:     +213.031664
External:        +0.000000
XC:             -88.229611
Entropy (-ST):   -1.725364
Local:          -12.768671
--------------------------
Free energy:   -180.492715
Extrapolated:  -179.630033

Showing only first 2 kpts
 Kpt  Band  Eigenvalues  Occupancy
  0   219     -1.41233    1.18041
  0   220     -1.34606    0.85213
  0   221     -1.21173    0.32460
  0   222     -1.18463    0.25748

  1   219     -1.44143    1.31661
  1   220     -1.43832    1.30259
  1   221     -1.42681    1.24940
  1   222     -1.41693    1.20257


Fermi level: -1.37585

No gap

Forces in eV/Ang:
  0 Pt    0.02267    0.00960    0.04796
  1 Pt    0.00113    0.00133   -0.00803
  2 Pt   -0.00640   -0.00039   -0.02631
  3 Pt   -0.00106   -0.00317   -0.00726
  4 Pt    0.00805    0.00158    0.04809
  5 Pt   -0.00922    0.02041   -0.01616
  6 Pt    0.00097    0.00099   -0.02666
  7 Pt    0.01056   -0.01678   -0.01174
  8 Pt   -0.00791   -0.00493   -0.00488
  9 Pt   -0.06310    0.02622   -0.02273
 10 Pt    0.12879    0.07878    0.11793
 11 Pt    0.04264   -0.04027   -0.08835
 12 Pt    0.00919    0.00573    0.00013
 13 Pt   -0.02508    0.06841   -0.11680
 14 Pt    0.00616   -0.00075   -0.02892
 15 Pt    0.00670   -0.00336   -0.02136
 16 Pt   -0.01452   -0.07818   -0.00459
 17 Pt    0.00915   -0.00016    0.00105
 18 Pt    0.00211    0.00872   -0.01157
 19 Pt   -0.04392   -0.07486   -0.02350
 20 Pt    0.03730   -0.16411   -0.04990
 21 Pt   -0.09531   -0.00298   -0.02115
 22 Pt    0.15968    0.11180    1.20191
 23 Pt    0.17208   -0.01008    0.08069
 24 Pt   -0.14795    0.13056   -0.05985
 25 Pt    0.08133    0.11965    0.17372
 26 Pt    0.04827    0.02681   -0.01487
 27 O     0.05284    0.01334   -1.03888
 28 C    -0.39052   -0.21735   -0.06395

System changes: positions 

Initializing position-dependent things.

Density initialized from wave functions
                                            
                                            
                                            
                                            
                                            
                                            
                     O                      
                     C                      
                                            
                 Pt     Pt     Pt           
            Pt     Pt     Pt                
                  Pt     Pt    Pt           
       Pt    PPt    PPt    Pt               
                                            
        Pt     Pt    PPt    Pt    Pt        
                                            
                Pt     Pt     Pt            
           Pt     Pt     Pt                 
                                            
                                            
                                            
                                            

Positions:
   0 Pt     1.393324    0.804386   11.949005    ( 0.0000,  0.0000,  0.0000)
   1 Pt     4.179017    0.804268   11.948205    ( 0.0000,  0.0000,  0.0000)
   2 Pt     6.964910    0.804244   11.947944    ( 0.0000,  0.0000,  0.0000)
   3 Pt     2.785986    3.216951   11.948216    ( 0.0000,  0.0000,  0.0000)
   4 Pt     5.572116    3.217019   11.949007    ( 0.0000,  0.0000,  0.0000)
   5 Pt     8.357870    3.217288   11.948089    ( 0.0000,  0.0000,  0.0000)
   6 Pt     4.179015    5.629758   11.947939    ( 0.0000,  0.0000,  0.0000)
   7 Pt     6.965153    5.629504   11.948152    ( 0.0000,  0.0000,  0.0000)
   8 Pt     9.750890    5.629674   11.948250    ( 0.0000,  0.0000,  0.0000)
   9 Pt    -0.000901    1.608873   14.274453    ( 0.0000,  0.0000,  0.0000)
  10 Pt     2.787841    1.609624   14.276463    ( 0.0000,  0.0000,  0.0000)
  11 Pt     5.572611    1.607923   14.273516    ( 0.0000,  0.0000,  0.0000)
  12 Pt     1.393132    4.021328   14.274780    ( 0.0000,  0.0000,  0.0000)
  13 Pt     4.178643    4.022223   14.273109    ( 0.0000,  0.0000,  0.0000)
  14 Pt     6.965090    4.021235   14.274365    ( 0.0000,  0.0000,  0.0000)
  15 Pt     2.786096    6.433945   14.274473    ( 0.0000,  0.0000,  0.0000)
  16 Pt     5.571794    6.432876   14.274712    ( 0.0000,  0.0000,  0.0000)
  17 Pt     8.358133    6.433991   14.274793    ( 0.0000,  0.0000,  0.0000)
  18 Pt     0.000030    0.000125   16.601034    ( 0.0000,  0.0000,  0.0000)
  19 Pt     2.785373   -0.001069   16.600863    ( 0.0000,  0.0000,  0.0000)
  20 Pt     5.572534   -0.002344   16.600486    ( 0.0000,  0.0000,  0.0000)
  21 Pt     1.391639    2.412705   16.600897    ( 0.0000,  0.0000,  0.0000)
  22 Pt     4.181282    2.414345   16.618370    ( 0.0000,  0.0000,  0.0000)
  23 Pt     6.967460    2.412603   16.602352    ( 0.0000,  0.0000,  0.0000)
  24 Pt     2.783887    4.827360   16.600344    ( 0.0000,  0.0000,  0.0000)
  25 Pt     5.573163    4.827204   16.603681    ( 0.0000,  0.0000,  0.0000)
  26 Pt     8.358692    4.825878   16.600987    ( 0.0000,  0.0000,  0.0000)
  27 O      5.000755    3.000191   20.060329    ( 0.0000,  0.0000,  0.0000)
  28 C      4.994421    2.996895   18.923916    ( 0.0000,  0.0000,  0.0000)

Unit cell:
           periodic     x           y           z      points  spacing
  1. axis:    yes    8.358002    0.000000    0.000000    36     0.2011
  2. axis:    yes    4.179001    7.238242    0.000000    36     0.2011
  3. axis:    yes    0.000000    0.000000   28.549520   144     0.1983

  Lengths:   8.358002   8.358002  28.549520
  Angles:   90.000000  90.000000  60.000000

Effective grid spacing dv^(1/3) = 0.2100

     iter     time        total  log10-change:
                         energy  eigst   dens
iter:   1 12:55:23  -179.860281  -2.55
iter:   2 12:55:55  -180.304483  -2.62  -2.44
iter:   3 12:56:27  -179.695775  -3.16  -2.22
iter:   4 12:56:58  -179.678494  -4.03  -3.00
iter:   5 12:57:29  -179.667115c -3.77  -3.25
iter:   6 12:58:00  -179.666030c -4.66  -3.38
iter:   7 12:58:33  -179.664955c -4.90  -3.55
iter:   8 12:59:03  -179.664049c -5.03  -3.69
iter:   9 12:59:34  -179.663687c -5.48  -3.84
iter:  10 13:00:04  -179.663629c -5.96  -3.98
iter:  11 13:00:35  -179.663794c -5.80  -4.04c
iter:  12 13:01:07  -179.663812c -6.11  -4.35c
iter:  13 13:01:37  -179.663774c -6.74  -4.41c
iter:  14 13:02:08  -179.663786c -7.19  -4.58c
iter:  15 13:02:39  -179.663801c -7.59c -4.61c

Converged after 15 iterations.

Dipole moment: (-2.351030, -1.371641, 0.138721) |e|*Ang

Energy contributions relative to reference atoms: (reference = -13513203.275138)

Kinetic:       -290.668593
Potential:     +213.099040
External:        +0.000000
XC:             -88.483512
Entropy (-ST):   -1.723459
Local:          -12.749006
--------------------------
Free energy:   -180.525530
Extrapolated:  -179.663801

Showing only first 2 kpts
 Kpt  Band  Eigenvalues  Occupancy
  0   219     -1.39428    1.17131
  0   220     -1.32873    0.84646
  0   221     -1.19601    0.32583
  0   222     -1.16817    0.25682

  1   219     -1.42506    1.31573
  1   220     -1.42224    1.30299
  1   221     -1.41235    1.25741
  1   222     -1.40056    1.20159


Fermi level: -1.35968

No gap

Forces in eV/Ang:
  0 Pt    0.02034    0.00870    0.04673
  1 Pt   -0.00340    0.00023   -0.00070
  2 Pt    0.00079   -0.00492   -0.02815
  3 Pt   -0.00438   -0.00656   -0.00120
  4 Pt    0.00670    0.00087    0.04621
  5 Pt   -0.00462    0.01710   -0.01269
  6 Pt    0.00041    0.00930   -0.02920
  7 Pt    0.01012   -0.01155   -0.00772
  8 Pt   -0.00691   -0.00427   -0.00312
  9 Pt   -0.04792    0.02106   -0.02459
 10 Pt    0.13590    0.08169    0.15692
 11 Pt    0.02088   -0.02125   -0.03999
 12 Pt    0.00804    0.00154   -0.00347
 13 Pt   -0.01604    0.04021   -0.06471
 14 Pt   -0.00004   -0.00207   -0.01671
 15 Pt    0.00825   -0.00043   -0.02932
 16 Pt   -0.01004   -0.06350   -0.00370
 17 Pt    0.00535    0.00217   -0.00236
 18 Pt    0.00490    0.00760   -0.01255
 19 Pt   -0.03147   -0.05012   -0.02611
 20 Pt    0.02734   -0.12296   -0.04729
 21 Pt   -0.06591   -0.00424   -0.02298
 22 Pt    0.16728    0.11886    1.11852
 23 Pt    0.14540   -0.00987    0.06221
 24 Pt   -0.11377    0.10080   -0.05656
 25 Pt    0.06679    0.10115    0.14437
 26 Pt    0.03632    0.02097   -0.01324
 27 O     0.07756    0.00447    0.43100
 28 C    -0.41681   -0.24088   -1.62070

System changes: positions 

Initializing position-dependent things.

Density initialized from wave functions
                                            
                                            
                                            
                                            
                                            
                                            
                     O                      
                     C                      
                                            
                 Pt     Pt     Pt           
            Pt     Pt     Pt                
                  Pt     Pt    Pt           
       Pt    PPt    PPt    Pt               
                                            
        Pt     Pt    PPt    Pt    Pt        
                       Pt                   
                Pt            Pt            
           Pt     Pt     Pt                 
                                            
                                            
                                            
                                            

Positions:
   0 Pt     1.395438    0.805284   11.953580    ( 0.0000,  0.0000,  0.0000)
   1 Pt     4.178999    0.804365   11.947638    ( 0.0000,  0.0000,  0.0000)
   2 Pt     6.964495    0.804080   11.945365    ( 0.0000,  0.0000,  0.0000)
   3 Pt     2.785792    3.216552   11.947688    ( 0.0000,  0.0000,  0.0000)
   4 Pt     5.572853    3.217152   11.953575    ( 0.0000,  0.0000,  0.0000)
   5 Pt     8.357113    3.219157   11.946633    ( 0.0000,  0.0000,  0.0000)
   6 Pt     4.179092    5.630085   11.945307    ( 0.0000,  0.0000,  0.0000)
   7 Pt     6.966155    5.628038   11.947137    ( 0.0000,  0.0000,  0.0000)
   8 Pt     9.750157    5.629218   11.947831    ( 0.0000,  0.0000,  0.0000)
   9 Pt    -0.006542    1.611248   14.272218    ( 0.0000,  0.0000,  0.0000)
  10 Pt     2.800414    1.617275   14.288882    ( 0.0000,  0.0000,  0.0000)
  11 Pt     5.576101    1.604584   14.266374    ( 0.0000,  0.0000,  0.0000)
  12 Pt     1.393983    4.021761   14.274692    ( 0.0000,  0.0000,  0.0000)
  13 Pt     4.176484    4.028010   14.263338    ( 0.0000,  0.0000,  0.0000)
  14 Pt     6.965509    4.021126   14.271926    ( 0.0000,  0.0000,  0.0000)
  15 Pt     2.786783    6.433704   14.272199    ( 0.0000,  0.0000,  0.0000)
  16 Pt     5.570523    6.425773   14.274296    ( 0.0000,  0.0000,  0.0000)
  17 Pt     8.358906    6.434040   14.274799    ( 0.0000,  0.0000,  0.0000)
  18 Pt     0.000311    0.000932   16.599895    ( 0.0000,  0.0000,  0.0000)
  19 Pt     2.781500   -0.007573   16.598533    ( 0.0000,  0.0000,  0.0000)
  20 Pt     5.575841   -0.016967   16.595764    ( 0.0000,  0.0000,  0.0000)
  21 Pt     1.383300    2.412383   16.598813    ( 0.0000,  0.0000,  0.0000)
  22 Pt     4.196838    2.425284   16.731537    ( 0.0000,  0.0000,  0.0000)
  23 Pt     6.983252    2.411641   16.609591    ( 0.0000,  0.0000,  0.0000)
  24 Pt     2.770624    4.839076   16.594685    ( 0.0000,  0.0000,  0.0000)
  25 Pt     5.580573    4.838186   16.619556    ( 0.0000,  0.0000,  0.0000)
  26 Pt     8.362997    4.828291   16.599603    ( 0.0000,  0.0000,  0.0000)
  27 O      5.006521    3.001225   20.001470    ( 0.0000,  0.0000,  0.0000)
  28 C      4.956163    2.975354   18.874384    ( 0.0000,  0.0000,  0.0000)

Unit cell:
           periodic     x           y           z      points  spacing
  1. axis:    yes    8.358002    0.000000    0.000000    36     0.2011
  2. axis:    yes    4.179001    7.238242    0.000000    36     0.2011
  3. axis:    yes    0.000000    0.000000   28.549520   144     0.1983

  Lengths:   8.358002   8.358002  28.549520
  Angles:   90.000000  90.000000  60.000000

Effective grid spacing dv^(1/3) = 0.2100

     iter     time        total  log10-change:
                         energy  eigst   dens
iter:   1 13:04:15  -181.640775  -1.21
iter:   2 13:04:45  -184.343993  -1.62  -1.98
iter:   3 13:05:17  -180.187015  -2.20  -1.80
iter:   4 13:05:49  -180.047779  -3.06  -2.41
iter:   5 13:06:22  -179.933907  -2.79  -2.60
iter:   6 13:06:53  -179.928791c -3.45  -2.89
iter:   7 13:07:23  -179.924762c -4.14  -2.98
iter:   8 13:07:55  -179.920639c -4.07  -3.07
iter:   9 13:08:26  -179.921010c -4.37  -3.25
iter:  10 13:08:55  -179.916917c -4.64  -3.18
iter:  11 13:09:26  -179.916761c -5.39  -3.48
iter:  12 13:09:57  -179.916730c -4.89  -3.54
iter:  13 13:10:28  -179.916624c -5.53  -3.89
iter:  14 13:10:59  -179.916642c -6.23  -3.98
iter:  15 13:11:30  -179.916831c -5.96  -4.04c
iter:  16 13:12:02  -179.916893c -6.17  -4.24c
iter:  17 13:12:33  -179.916857c -6.71  -4.05c
iter:  18 13:13:03  -179.916854c -7.50c -4.37c

Converged after 18 iterations.

Dipole moment: (-0.740132, -0.591081, 0.157828) |e|*Ang

Energy contributions relative to reference atoms: (reference = -13513203.275138)

Kinetic:       -293.978803
Potential:     +215.930195
External:        +0.000000
XC:             -88.268661
Entropy (-ST):   -1.706741
Local:          -12.746215
--------------------------
Free energy:   -180.770225
Extrapolated:  -179.916854

Showing only first 2 kpts
 Kpt  Band  Eigenvalues  Occupancy
  0   219     -1.35871    1.06235
  0   220     -1.30503    0.79687
  0   221     -1.18844    0.34220
  0   222     -1.15531    0.25815

  1   219     -1.41806    1.34451
  1   220     -1.41113    1.31361
  1   221     -1.40756    1.29740
  1   222     -1.38455    1.18931


Fermi level: -1.34622

No gap

Forces in eV/Ang:
  0 Pt    0.00211    0.00171    0.00239
  1 Pt   -0.02898   -0.00083    0.02459
  2 Pt    0.04526   -0.02977   -0.06713
  3 Pt   -0.01900   -0.02813    0.01605
  4 Pt   -0.00364   -0.00480    0.01202
  5 Pt    0.02342   -0.00664   -0.01703
  6 Pt   -0.00070    0.05855   -0.07129
  7 Pt    0.00439    0.02124   -0.00779
  8 Pt    0.00083    0.00035   -0.01977
  9 Pt    0.04368   -0.00575   -0.02260
 10 Pt    0.14585    0.08051    0.36814
 11 Pt   -0.07584    0.06863    0.20950
 12 Pt    0.00626   -0.02542   -0.02523
 13 Pt    0.03200   -0.08897    0.20031
 14 Pt   -0.03501   -0.00960    0.05522
 15 Pt    0.01634    0.01663   -0.07207
 16 Pt    0.02108    0.02397    0.01613
 17 Pt   -0.01719    0.02158   -0.02313
 18 Pt    0.02506    0.00475   -0.02942
 19 Pt    0.03540    0.08615   -0.04610
 20 Pt   -0.02798    0.09794   -0.03489
 21 Pt    0.09421   -0.01391   -0.03892
 22 Pt    0.25915    0.19457    1.28220
 23 Pt    0.00131   -0.01724   -0.01913
 24 Pt    0.06801   -0.05903   -0.03728
 25 Pt   -0.01749    0.00553    0.01867
 26 Pt   -0.02402   -0.00698   -0.01347
 27 O     0.15427    0.09501    1.51971
 28 C    -0.73092   -0.47805   -3.37195

System changes: positions 

Initializing position-dependent things.

Density initialized from wave functions
                                            
                                            
                                            
                                            
                                            
                                            
                     O                      
                     C                      
                                            
                 Pt     Pt     Pt           
            Pt     Pt     Pt                
       Pt         Pt     Pt    Pt           
             PPt    PPt    Pt               
        Pt     Pt     Pt                    
                     Pt     Pt    Pt        
                Pt     Pt     Pt            
                                            
           Pt     Pt     Pt                 
                                            
                                            
                                            
                                            

Positions:
   0 Pt     1.397427    0.806184   11.957284    ( 0.0000,  0.0000,  0.0000)
   1 Pt     4.177153    0.804492   11.948388    ( 0.0000,  0.0000,  0.0000)
   2 Pt     6.967039    0.802062   11.938255    ( 0.0000,  0.0000,  0.0000)
   3 Pt     2.784486    3.214368   11.947918    ( 0.0000,  0.0000,  0.0000)
   4 Pt     5.573253    3.216941   11.958124    ( 0.0000,  0.0000,  0.0000)
   5 Pt     8.357929    3.220368   11.943799    ( 0.0000,  0.0000,  0.0000)
   6 Pt     4.179155    5.634123   11.937900    ( 0.0000,  0.0000,  0.0000)
   7 Pt     6.967297    5.628088   11.945312    ( 0.0000,  0.0000,  0.0000)
   8 Pt     9.749572    5.628837   11.945731    ( 0.0000,  0.0000,  0.0000)
   9 Pt    -0.008869    1.613112   14.268954    ( 0.0000,  0.0000,  0.0000)
  10 Pt     2.820659    1.629088   14.323390    ( 0.0000,  0.0000,  0.0000)
  11 Pt     5.574982    1.605537   14.272617    ( 0.0000,  0.0000,  0.0000)
  12 Pt     1.395244    4.020498   14.272995    ( 0.0000,  0.0000,  0.0000)
  13 Pt     4.176467    4.028244   14.266486    ( 0.0000,  0.0000,  0.0000)
  14 Pt     6.963687    4.020419   14.273222    ( 0.0000,  0.0000,  0.0000)
  15 Pt     2.788435    6.434541   14.265595    ( 0.0000,  0.0000,  0.0000)
  16 Pt     5.570787    6.420833   14.275190    ( 0.0000,  0.0000,  0.0000)
  17 Pt     8.358513    6.435557   14.273317    ( 0.0000,  0.0000,  0.0000)
  18 Pt     0.002229    0.002034   16.596790    ( 0.0000,  0.0000,  0.0000)
  19 Pt     2.780112   -0.008177   16.593387    ( 0.0000,  0.0000,  0.0000)
  20 Pt     5.577133   -0.024436   16.589176    ( 0.0000,  0.0000,  0.0000)
  21 Pt     1.381474    2.411164   16.594341    ( 0.0000,  0.0000,  0.0000)
  22 Pt     4.228364    2.448258   16.927696    ( 0.0000,  0.0000,  0.0000)
  23 Pt     6.997977    2.409517   16.615445    ( 0.0000,  0.0000,  0.0000)
  24 Pt     2.762519    4.846270   16.587139    ( 0.0000,  0.0000,  0.0000)
  25 Pt     5.586248    4.848792   16.636039    ( 0.0000,  0.0000,  0.0000)
  26 Pt     8.365565    4.830158   16.597314    ( 0.0000,  0.0000,  0.0000)
  27 O      5.020464    3.010638   19.916988    ( 0.0000,  0.0000,  0.0000)
  28 C      4.871927    2.923534   18.739213    ( 0.0000,  0.0000,  0.0000)

Unit cell:
           periodic     x           y           z      points  spacing
  1. axis:    yes    8.358002    0.000000    0.000000    36     0.2011
  2. axis:    yes    4.179001    7.238242    0.000000    36     0.2011
  3. axis:    yes    0.000000    0.000000   28.549520   144     0.1983

  Lengths:   8.358002   8.358002  28.549520
  Angles:   90.000000  90.000000  60.000000

Effective grid spacing dv^(1/3) = 0.2100

     iter     time        total  log10-change:
                         energy  eigst   dens
iter:   1 13:14:34  -184.220480  -0.76
iter:   2 13:15:05  -190.404300  -1.20  -1.80
iter:   3 13:15:37  -180.978112  -1.86  -1.64
iter:   4 13:16:07  -180.845679  -2.52  -2.33
iter:   5 13:16:37  -180.647450  -2.48  -2.39
iter:   6 13:17:09  -180.617128  -2.87  -2.67
iter:   7 13:17:39  -180.597372c -3.41  -2.77
iter:   8 13:18:09  -180.589148c -3.44  -2.92
iter:   9 13:18:40  -180.579149c -3.74  -3.06
iter:  10 13:19:11  -180.576231c -3.94  -3.23
iter:  11 13:19:41  -180.575706c -4.53  -3.35
iter:  12 13:20:13  -180.576496c -4.92  -3.44
iter:  13 13:20:45  -180.575840c -5.09  -3.40
iter:  14 13:21:15  -180.576123c -5.15  -3.62
iter:  15 13:21:47  -180.575795c -5.33  -3.74
iter:  16 13:22:18  -180.575733c -5.88  -3.96
iter:  17 13:22:49  -180.575868c -5.81  -4.02c
iter:  18 13:23:21  -180.576058c -6.00  -4.13c
iter:  19 13:23:52  -180.575952c -6.29  -4.04c
iter:  20 13:24:22  -180.575947c -6.73  -4.34c
iter:  21 13:24:53  -180.575897c -6.46  -4.46c
iter:  22 13:25:24  -180.575892c -7.25  -4.86c
iter:  23 13:25:56  -180.575892c -8.01c -4.90c

Converged after 23 iterations.

Dipole moment: (0.039453, -0.273903, 0.019417) |e|*Ang

Energy contributions relative to reference atoms: (reference = -13513203.275138)

Kinetic:       -304.027435
Potential:     +223.991624
External:        +0.000000
XC:             -87.018678
Entropy (-ST):   -1.669698
Local:          -12.686554
--------------------------
Free energy:   -181.410741
Extrapolated:  -180.575892

Showing only first 2 kpts
 Kpt  Band  Eigenvalues  Occupancy
  0   219     -1.43683    0.96467
  0   220     -1.34468    0.54096
  0   221     -1.29708    0.37445
  0   222     -1.25708    0.26750

  1   219     -1.53744    1.43635
  1   220     -1.51289    1.33191
  1   221     -1.50723    1.30651
  1   222     -1.47790    1.16843


Fermi level: -1.44390

No gap

Forces in eV/Ang:
  0 Pt   -0.01614   -0.00671   -0.05548
  1 Pt   -0.03536    0.02556    0.10814
  2 Pt    0.05430   -0.02285   -0.06310
  3 Pt    0.00293   -0.04338    0.09725
  4 Pt   -0.02235   -0.01285    0.02468
  5 Pt    0.02991   -0.03676    0.01016
  6 Pt    0.00682    0.05761   -0.06387
  7 Pt   -0.01810    0.04079    0.02082
  8 Pt    0.01589    0.00861   -0.01220
  9 Pt    0.12931   -0.03133   -0.03966
 10 Pt    0.04307    0.02057    0.33444
 11 Pt   -0.08837    0.10052    0.35454
 12 Pt    0.00504   -0.03121   -0.05983
 13 Pt    0.06263   -0.12004    0.35622
 14 Pt   -0.04814   -0.01165    0.08008
 15 Pt    0.01296    0.02542   -0.09606
 16 Pt    0.04534    0.11657   -0.00446
 17 Pt   -0.02080    0.02805   -0.05986
 18 Pt    0.02253   -0.00536   -0.00928
 19 Pt    0.11278    0.18351    0.03487
 20 Pt   -0.05062    0.24538    0.01389
 21 Pt    0.21803    0.00261    0.03065
 22 Pt    0.18393    0.15162    1.10712
 23 Pt   -0.02464   -0.04858   -0.08492
 24 Pt    0.19180   -0.14292    0.01331
 25 Pt   -0.04308    0.05174   -0.07727
 26 Pt   -0.05992   -0.02448    0.01153
 27 O    -0.35060   -0.17268   -3.69689
 28 C    -0.43007   -0.39292    1.74906

System changes: positions 

Initializing position-dependent things.

Density initialized from wave functions
                                            
                                            
                                            
                                            
                                            
                                            
                     O                      
                     C                      
                                            
                 PtPt   Pt     Pt           
            Pt            Pt                
       Pt     Pt  Pt Pt  Pt    Pt           
             Pt     Pt     Pt               
        Pt     Pt     Pt                    
                     Pt     Pt    Pt        
                Pt     Pt     Pt            
                                            
           Pt     Pt     Pt                 
                                            
                                            
                                            
                                            

Positions:
   0 Pt     1.399603    0.807148   11.961438    ( 0.0000,  0.0000,  0.0000)
   1 Pt     4.175505    0.804883   11.949839    ( 0.0000,  0.0000,  0.0000)
   2 Pt     6.969155    0.800361   11.931609    ( 0.0000,  0.0000,  0.0000)
   3 Pt     2.783524    3.212233   11.948919    ( 0.0000,  0.0000,  0.0000)
   4 Pt     5.573634    3.216726   11.963671    ( 0.0000,  0.0000,  0.0000)
   5 Pt     8.358451    3.221680   11.941365    ( 0.0000,  0.0000,  0.0000)
   6 Pt     4.179301    5.637642   11.931016    ( 0.0000,  0.0000,  0.0000)
   7 Pt     6.968356    5.627872   11.943882    ( 0.0000,  0.0000,  0.0000)
   8 Pt     9.748998    5.628456   11.944045    ( 0.0000,  0.0000,  0.0000)
   9 Pt    -0.011698    1.615141   14.265232    ( 0.0000,  0.0000,  0.0000)
  10 Pt     2.840843    1.640962   14.356306    ( 0.0000,  0.0000,  0.0000)
  11 Pt     5.574813    1.605770   14.277442    ( 0.0000,  0.0000,  0.0000)
  12 Pt     1.396539    4.019511   14.271158    ( 0.0000,  0.0000,  0.0000)
  13 Pt     4.176136    4.029710   14.268013    ( 0.0000,  0.0000,  0.0000)
  14 Pt     6.962120    4.019761   14.273828    ( 0.0000,  0.0000,  0.0000)
  15 Pt     2.790021    6.435272   14.258999    ( 0.0000,  0.0000,  0.0000)
  16 Pt     5.570849    6.415411   14.275519    ( 0.0000,  0.0000,  0.0000)
  17 Pt     8.358383    6.436899   14.271671    ( 0.0000,  0.0000,  0.0000)
  18 Pt     0.003898    0.003094   16.594075    ( 0.0000,  0.0000,  0.0000)
  19 Pt     2.778590   -0.009621   16.589183    ( 0.0000,  0.0000,  0.0000)
  20 Pt     5.578999   -0.033637   16.582649    ( 0.0000,  0.0000,  0.0000)
  21 Pt     1.378722    2.410218   16.590667    ( 0.0000,  0.0000,  0.0000)
  22 Pt     4.258922    2.470532   17.124089    ( 0.0000,  0.0000,  0.0000)
  23 Pt     7.015051    2.407125   16.621816    ( 0.0000,  0.0000,  0.0000)
  24 Pt     2.752938    4.855047   16.579509    ( 0.0000,  0.0000,  0.0000)
  25 Pt     5.593093    4.861641   16.653697    ( 0.0000,  0.0000,  0.0000)
  26 Pt     8.368648    4.832273   16.595261    ( 0.0000,  0.0000,  0.0000)
  27 O      5.029074    3.015309   19.812458    ( 0.0000,  0.0000,  0.0000)
  28 C      4.792558    2.874262   18.623231    ( 0.0000,  0.0000,  0.0000)

Unit cell:
           periodic     x           y           z      points  spacing
  1. axis:    yes    8.358002    0.000000    0.000000    36     0.2011
  2. axis:    yes    4.179001    7.238242    0.000000    36     0.2011
  3. axis:    yes    0.000000    0.000000   28.549520   144     0.1983

  Lengths:   8.358002   8.358002  28.549520
  Angles:   90.000000  90.000000  60.000000

Effective grid spacing dv^(1/3) = 0.2100

     iter     time        total  log10-change:
                         energy  eigst   dens
iter:   1 13:27:30  -189.159601  -0.76
iter:   2 13:28:04  -200.978022  -0.87  -1.61
iter:   3 13:28:35  -180.908591  -1.62  -1.48
iter:   4 13:29:06  -180.363420  -2.25  -2.18
iter:   5 13:29:36  -179.975219  -2.36  -2.32
iter:   6 13:30:08  -179.914240  -2.45  -2.54
iter:   7 13:30:40  -179.894892c -3.28  -2.63
iter:   8 13:31:13  -179.859824c -3.52  -2.70
iter:   9 13:31:44  -179.853377c -3.38  -2.91
iter:  10 13:32:15  -179.846732c -3.84  -3.11
iter:  11 13:32:46  -179.841836c -4.01  -3.11
iter:  12 13:33:17  -179.840306c -4.49  -3.25
iter:  13 13:33:48  -179.840122c -4.52  -3.41
iter:  14 13:34:18  -179.840163c -4.91  -3.58
iter:  15 13:34:49  -179.840390c -5.14  -3.71
iter:  16 13:35:20  -179.840553c -5.36  -3.80
iter:  17 13:35:51  -179.840676c -5.75  -3.96
iter:  18 13:36:21  -179.840731c -5.91  -3.97
iter:  19 13:36:52  -179.840824c -5.98  -3.93
iter:  20 13:37:24  -179.840974c -6.12  -4.24c
iter:  21 13:37:55  -179.841038c -6.33  -4.41c
iter:  22 13:38:26  -179.840939c -6.57  -4.51c
iter:  23 13:38:57  -179.840926c -7.29  -4.82c
iter:  24 13:39:27  -179.840929c -7.35  -4.81c
iter:  25 13:39:58  -179.840927c -7.90c -4.74c

Converged after 25 iterations.

Dipole moment: (1.024292, 0.140804, -0.157915) |e|*Ang

Energy contributions relative to reference atoms: (reference = -13513203.275138)

Kinetic:       -281.032068
Potential:     +204.624233
External:        +0.000000
XC:             -89.849437
Entropy (-ST):   -1.644904
Local:          -12.761203
--------------------------
Free energy:   -180.663379
Extrapolated:  -179.840927

Showing only first 2 kpts
 Kpt  Band  Eigenvalues  Occupancy
  0   219     -1.56919    0.99505
  0   220     -1.45013    0.46275
  0   221     -1.42731    0.38659
  0   222     -1.38065    0.26128

  1   219     -1.67741    1.49004
  1   220     -1.64158    1.34257
  1   221     -1.63130    1.29640
  1   222     -1.60005    1.14821


Fermi level: -1.57018

No gap

Forces in eV/Ang:
  0 Pt   -0.03652   -0.01669   -0.07085
  1 Pt   -0.03573    0.04465    0.15578
  2 Pt    0.05554   -0.01379   -0.04955
  3 Pt    0.02114   -0.05053    0.14291
  4 Pt   -0.03623   -0.01806   -0.00185
  5 Pt    0.03470   -0.06498    0.02607
  6 Pt    0.01289    0.04987   -0.05105
  7 Pt   -0.04046    0.05853    0.03449
  8 Pt    0.03206    0.01792   -0.01119
  9 Pt    0.21681   -0.06615   -0.04760
 10 Pt   -0.10326   -0.06466    0.10068
 11 Pt   -0.06378    0.11898    0.41751
 12 Pt   -0.00229   -0.05141   -0.07903
 13 Pt    0.10029   -0.11855    0.44356
 14 Pt   -0.06143   -0.01249    0.13657
 15 Pt    0.01713    0.04102   -0.10148
 16 Pt    0.06332    0.21155   -0.02255
 17 Pt   -0.03815    0.03714   -0.07950
 18 Pt    0.01911   -0.02032    0.00145
 19 Pt    0.17934    0.27064    0.10867
 20 Pt   -0.09719    0.45372    0.05846
 21 Pt    0.34644    0.01457    0.09427
 22 Pt   -2.94807   -2.17368   -8.44483
 23 Pt   -0.13577   -0.06409   -0.21653
 24 Pt    0.36741   -0.28764    0.05482
 25 Pt   -0.08775    0.03823   -0.30188
 26 Pt   -0.13124   -0.05971    0.01860
 27 O    -0.69010   -0.32779   -4.47955
 28 C     3.01973    2.02172   12.21867

System changes: positions 

Initializing position-dependent things.

Density initialized from wave functions
                                            
                                            
                                            
                                            
                                            
                                            
                     O                      
                     C                      
                                            
                 Pt     Pt     Pt           
            Pt     Pt     Pt                
       Pt     Pt  Pt     Pt    Pt           
             Pt     PPt    Pt               
        Pt     Pt     Pt                    
                     Pt     Pt    Pt        
                Pt     Pt     Pt            
                                            
           Pt     Pt     Pt                 
                                            
                                            
                                            
                                            

Positions:
   0 Pt     1.397726    0.806316   11.957788    ( 0.0000,  0.0000,  0.0000)
   1 Pt     4.176518    0.804838   11.949848    ( 0.0000,  0.0000,  0.0000)
   2 Pt     6.967906    0.801552   11.936499    ( 0.0000,  0.0000,  0.0000)
   3 Pt     2.784363    3.213545   11.949195    ( 0.0000,  0.0000,  0.0000)
   4 Pt     5.573115    3.216779   11.959599    ( 0.0000,  0.0000,  0.0000)
   5 Pt     8.358278    3.220286   11.943538    ( 0.0000,  0.0000,  0.0000)
   6 Pt     4.179256    5.635288   11.936089    ( 0.0000,  0.0000,  0.0000)
   7 Pt     6.967317    5.628403   11.945343    ( 0.0000,  0.0000,  0.0000)
   8 Pt     9.749618    5.628849   11.945408    ( 0.0000,  0.0000,  0.0000)
   9 Pt    -0.008205    1.613191   14.267741    ( 0.0000,  0.0000,  0.0000)
  10 Pt     2.825010    1.631615   14.332565    ( 0.0000,  0.0000,  0.0000)
  11 Pt     5.574198    1.606511   14.276827    ( 0.0000,  0.0000,  0.0000)
  12 Pt     1.395526    4.020017   14.272046    ( 0.0000,  0.0000,  0.0000)
  13 Pt     4.177008    4.027481   14.270082    ( 0.0000,  0.0000,  0.0000)
  14 Pt     6.962936    4.020184   14.274091    ( 0.0000,  0.0000,  0.0000)
  15 Pt     2.788880    6.434934   14.263374    ( 0.0000,  0.0000,  0.0000)
  16 Pt     5.571197    6.420873   14.275084    ( 0.0000,  0.0000,  0.0000)
  17 Pt     8.358296    6.436060   14.272405    ( 0.0000,  0.0000,  0.0000)
  18 Pt     0.002728    0.002160   16.596244    ( 0.0000,  0.0000,  0.0000)
  19 Pt     2.780923   -0.006745   16.593069    ( 0.0000,  0.0000,  0.0000)
  20 Pt     5.577026   -0.023868   16.588056    ( 0.0000,  0.0000,  0.0000)
  21 Pt     1.383021    2.411048   16.594065    ( 0.0000,  0.0000,  0.0000)
  22 Pt     4.230172    2.449653   16.957749    ( 0.0000,  0.0000,  0.0000)
  23 Pt     7.001228    2.408575   16.615716    ( 0.0000,  0.0000,  0.0000)
  24 Pt     2.762494    4.846640   16.585759    ( 0.0000,  0.0000,  0.0000)
  25 Pt     5.587294    4.852018   16.638515    ( 0.0000,  0.0000,  0.0000)
  26 Pt     8.365552    4.830312   16.597062    ( 0.0000,  0.0000,  0.0000)
  27 O      5.018269    3.008877   19.885424    ( 0.0000,  0.0000,  0.0000)
  28 C      4.859265    2.915032   18.726881    ( 0.0000,  0.0000,  0.0000)

Unit cell:
           periodic     x           y           z      points  spacing
  1. axis:    yes    8.358002    0.000000    0.000000    36     0.2011
  2. axis:    yes    4.179001    7.238242    0.000000    36     0.2011
  3. axis:    yes    0.000000    0.000000   28.549520   144     0.1983

  Lengths:   8.358002   8.358002  28.549520
  Angles:   90.000000  90.000000  60.000000

Effective grid spacing dv^(1/3) = 0.2100

     iter     time        total  log10-change:
                         energy  eigst   dens
iter:   1 13:41:33  -185.638089  -0.62
iter:   2 13:42:04  -190.956459  -1.24  -1.78
iter:   3 13:42:37  -181.406008  -1.85  -1.62
iter:   4 13:43:07  -180.969761  -2.11  -2.25
iter:   5 13:43:38  -180.813085  -2.66  -2.34
iter:   6 13:44:08  -180.763494c -2.92  -2.62
iter:   7 13:44:39  -180.747538c -3.34  -2.69
iter:   8 13:45:11  -180.716169c -3.41  -2.74
iter:   9 13:45:42  -180.707445c -3.62  -3.02
iter:  10 13:46:13  -180.704519c -3.75  -3.21
iter:  11 13:46:45  -180.704151c -4.28  -3.30
iter:  12 13:47:16  -180.704773c -4.62  -3.36
iter:  13 13:47:46  -180.703647c -4.90  -3.41
iter:  14 13:48:16  -180.703281c -4.97  -3.49
iter:  15 13:48:49  -180.703168c -5.53  -3.76
iter:  16 13:49:20  -180.703185c -5.49  -3.86
iter:  17 13:49:51  -180.703188c -5.83  -4.03c
iter:  18 13:50:22  -180.703264c -5.83  -4.07c
iter:  19 13:50:53  -180.703227c -6.21  -4.08c
iter:  20 13:51:24  -180.703271c -6.22  -3.97
iter:  21 13:51:57  -180.703253c -6.60  -4.25c
iter:  22 13:52:28  -180.703258c -6.42  -4.43c
iter:  23 13:53:00  -180.703266c -7.07  -4.74c
iter:  24 13:53:33  -180.703258c -7.50c -4.81c

Converged after 24 iterations.

Dipole moment: (-0.045827, -0.342405, 0.031434) |e|*Ang

Energy contributions relative to reference atoms: (reference = -13513203.275138)

Kinetic:       -300.966948
Potential:     +221.432535
External:        +0.000000
XC:             -87.648533
Entropy (-ST):   -1.664113
Local:          -12.688255
--------------------------
Free energy:   -181.535315
Extrapolated:  -180.703258

Showing only first 2 kpts
 Kpt  Band  Eigenvalues  Occupancy
  0   219     -1.42813    0.96494
  0   220     -1.32837    0.51166
  0   221     -1.28926    0.37728
  0   222     -1.24818    0.26717

  1   219     -1.53182    1.44893
  1   220     -1.50437    1.33292
  1   221     -1.49754    1.30225
  1   222     -1.46818    1.16370


Fermi level: -1.43514

No gap

Forces in eV/Ang:
  0 Pt   -0.01326   -0.00534   -0.05788
  1 Pt   -0.02958    0.03140    0.11607
  2 Pt    0.04231   -0.01440   -0.05100
  3 Pt    0.01136   -0.04036    0.10588
  4 Pt   -0.02463   -0.01349    0.02960
  5 Pt    0.02460   -0.03762    0.01169
  6 Pt    0.00774    0.04214   -0.05072
  7 Pt   -0.02174    0.03699    0.02134
  8 Pt    0.01839    0.00973   -0.01380
  9 Pt    0.13526   -0.03472   -0.03876
 10 Pt    0.01165    0.00299    0.26446
 11 Pt   -0.06584    0.09369    0.34350
 12 Pt   -0.00175   -0.02260   -0.05737
 13 Pt    0.06744   -0.09901    0.35168
 14 Pt   -0.04072   -0.00809    0.08249
 15 Pt    0.01102    0.02527   -0.08971
 16 Pt    0.04504    0.12604   -0.00848
 17 Pt   -0.01640    0.01795   -0.05775
 18 Pt    0.01766   -0.00745   -0.00859
 19 Pt    0.11489    0.17333    0.05365
 20 Pt   -0.04431    0.24982    0.02336
 21 Pt    0.21081    0.01087    0.04710
 22 Pt    0.07887    0.08221    0.65697
 23 Pt   -0.03682   -0.04443   -0.10151
 24 Pt    0.20252   -0.14388    0.02145
 25 Pt   -0.04530    0.04651   -0.11094
 26 Pt   -0.05869   -0.02515    0.00827
 27 O    -0.18735   -0.06500   -2.20561
 28 C    -0.50798   -0.43347    0.72933

System changes: positions 

Initializing position-dependent things.

Density initialized from wave functions
                                            
                                            
                                            
                                            
                                            
                                            
                     O                      
                     C                      
                                            
                 Pt     Pt     Pt           
            Pt     Pt     Pt                
       Pt     Pt  Pt Pt  Pt    Pt           
             Pt     Pt     Pt               
        Pt     Pt     Pt                    
                     Pt     Pt    Pt        
                Pt     Pt     Pt            
                                            
           Pt     Pt     Pt                 
                                            
                                            
                                            
                                            

Positions:
   0 Pt     1.397765    0.806339   11.957548    ( 0.0000,  0.0000,  0.0000)
   1 Pt     4.175978    0.805255   11.951450    ( 0.0000,  0.0000,  0.0000)
   2 Pt     6.968654    0.801193   11.935249    ( 0.0000,  0.0000,  0.0000)
   3 Pt     2.784394    3.212831   11.950621    ( 0.0000,  0.0000,  0.0000)
   4 Pt     5.572845    3.216590   11.960476    ( 0.0000,  0.0000,  0.0000)
   5 Pt     8.358650    3.219934   11.943471    ( 0.0000,  0.0000,  0.0000)
   6 Pt     4.179362    5.636176   11.934811    ( 0.0000,  0.0000,  0.0000)
   7 Pt     6.967147    5.628861   11.945490    ( 0.0000,  0.0000,  0.0000)
   8 Pt     9.749798    5.628938   11.945093    ( 0.0000,  0.0000,  0.0000)
   9 Pt    -0.006717    1.612915   14.266885    ( 0.0000,  0.0000,  0.0000)
  10 Pt     2.827107    1.632795   14.338969    ( 0.0000,  0.0000,  0.0000)
  11 Pt     5.573298    1.607786   14.281726    ( 0.0000,  0.0000,  0.0000)
  12 Pt     1.395610    4.019608   14.271154    ( 0.0000,  0.0000,  0.0000)
  13 Pt     4.177875    4.026287   14.274805    ( 0.0000,  0.0000,  0.0000)
  14 Pt     6.962249    4.020016   14.275278    ( 0.0000,  0.0000,  0.0000)
  15 Pt     2.789188    6.435343   14.261597    ( 0.0000,  0.0000,  0.0000)
  16 Pt     5.571774    6.421994   14.275001    ( 0.0000,  0.0000,  0.0000)
  17 Pt     8.358047    6.436418   14.271530    ( 0.0000,  0.0000,  0.0000)
  18 Pt     0.003116    0.002155   16.595866    ( 0.0000,  0.0000,  0.0000)
  19 Pt     2.782260   -0.004620   16.593327    ( 0.0000,  0.0000,  0.0000)
  20 Pt     5.576581   -0.021361   16.587727    ( 0.0000,  0.0000,  0.0000)
  21 Pt     1.385532    2.411088   16.594296    ( 0.0000,  0.0000,  0.0000)
  22 Pt     4.230154    2.449891   16.971925    ( 0.0000,  0.0000,  0.0000)
  23 Pt     7.002191    2.407817   16.614869    ( 0.0000,  0.0000,  0.0000)
  24 Pt     2.764333    4.845475   16.585291    ( 0.0000,  0.0000,  0.0000)
  25 Pt     5.587305    4.853685   16.638495    ( 0.0000,  0.0000,  0.0000)
  26 Pt     8.365013    4.830150   16.596956    ( 0.0000,  0.0000,  0.0000)
  27 O      5.017235    3.008563   19.867016    ( 0.0000,  0.0000,  0.0000)
  28 C      4.849174    2.907740   18.717864    ( 0.0000,  0.0000,  0.0000)

Unit cell:
           periodic     x           y           z      points  spacing
  1. axis:    yes    8.358002    0.000000    0.000000    36     0.2011
  2. axis:    yes    4.179001    7.238242    0.000000    36     0.2011
  3. axis:    yes    0.000000    0.000000   28.549520   144     0.1983

  Lengths:   8.358002   8.358002  28.549520
  Angles:   90.000000  90.000000  60.000000

Effective grid spacing dv^(1/3) = 0.2100

     iter     time        total  log10-change:
                         energy  eigst   dens
iter:   1 13:55:07  -181.094562  -2.42
iter:   2 13:55:39  -181.974425  -2.34  -2.34
iter:   3 13:56:10  -180.787710  -2.94  -2.08
iter:   4 13:56:41  -180.774217  -3.76  -3.09
iter:   5 13:57:13  -180.761288c -3.76  -3.25
iter:   6 13:57:46  -180.760988c -4.56  -3.48
iter:   7 13:58:19  -180.760462c -5.13  -3.55
iter:   8 13:58:51  -180.759877c -5.20  -3.62
iter:   9 13:59:23  -180.759452c -5.51  -3.88
iter:  10 13:59:55  -180.759248c -5.88  -3.95
iter:  11 14:00:28  -180.759079c -6.07  -4.09c
iter:  12 14:01:00  -180.759099c -6.41  -4.23c
iter:  13 14:01:32  -180.759173c -6.37  -4.31c
iter:  14 14:02:03  -180.759190c -6.93  -4.56c
iter:  15 14:02:36  -180.759164c -7.29  -4.53c
iter:  16 14:03:08  -180.759171c -7.67c -4.66c

Converged after 16 iterations.

Dipole moment: (-0.329856, -0.503939, 0.034878) |e|*Ang

Energy contributions relative to reference atoms: (reference = -13513203.275138)

Kinetic:       -299.577910
Potential:     +220.318265
External:        +0.000000
XC:             -87.982562
Entropy (-ST):   -1.660781
Local:          -12.686573
--------------------------
Free energy:   -181.589561
Extrapolated:  -180.759171

Showing only first 2 kpts
 Kpt  Band  Eigenvalues  Occupancy
  0   219     -1.42491    0.96443
  0   220     -1.32137    0.49701
  0   221     -1.28670    0.37899
  0   222     -1.24537    0.26788

  1   219     -1.53078    1.45717
  1   220     -1.50121    1.33271
  1   221     -1.49347    1.29788
  1   222     -1.46441    1.16049


Fermi level: -1.43203

No gap

Forces in eV/Ang:
  0 Pt   -0.00886   -0.00362   -0.05705
  1 Pt   -0.02173    0.03620    0.12259
  2 Pt    0.02857   -0.00533   -0.03653
  3 Pt    0.01989   -0.03532    0.11378
  4 Pt   -0.02522   -0.01342    0.04286
  5 Pt    0.01649   -0.03395    0.01464
  6 Pt    0.00869    0.02541   -0.03488
  7 Pt   -0.02288    0.02888    0.02323
  8 Pt    0.01852    0.00952   -0.01262
  9 Pt    0.12754   -0.03204   -0.03474
 10 Pt    0.00465    0.00006    0.22351
 11 Pt   -0.04978    0.08363    0.32292
 12 Pt   -0.00249   -0.01284   -0.04754
 13 Pt    0.06398   -0.07978    0.33246
 14 Pt   -0.03225   -0.00557    0.07579
 15 Pt    0.00774    0.02184   -0.07566
 16 Pt    0.04207    0.12110   -0.01066
 17 Pt   -0.00866    0.01136   -0.04862
 18 Pt    0.01374   -0.00590   -0.00732
 19 Pt    0.10839    0.14656    0.07061
 20 Pt   -0.03228    0.21898    0.02928
 21 Pt    0.18166    0.01918    0.06147
 22 Pt    0.00957    0.02757    0.37301
 23 Pt   -0.03100   -0.03696   -0.09757
 24 Pt    0.18328   -0.12174    0.02673
 25 Pt   -0.03766    0.04649   -0.11829
 26 Pt   -0.04490   -0.01882    0.00579
 27 O    -0.05165   -0.00666   -1.48672
 28 C    -0.50507   -0.41844    0.32883

System changes: positions 

Initializing position-dependent things.

Density initialized from wave functions
                                            
                                            
                                            
                                            
                                            
                                            
                     O                      
                     C                      
                                            
                 PtPt   Pt     Pt           
            Pt            Pt                
       Pt     Pt  Pt Pt  Pt    Pt           
             Pt     Pt     Pt               
        Pt     Pt     Pt                    
                     Pt     Pt    Pt        
                Pt     Pt     Pt            
                                            
           Pt     Pt     Pt                 
                                            
                                            
                                            
                                            

Positions:
   0 Pt     1.397712    0.806342   11.955239    ( 0.0000,  0.0000,  0.0000)
   1 Pt     4.173902    0.807510   11.959520    ( 0.0000,  0.0000,  0.0000)
   2 Pt     6.971467    0.800087   11.930724    ( 0.0000,  0.0000,  0.0000)
   3 Pt     2.785116    3.209842   11.957937    ( 0.0000,  0.0000,  0.0000)
   4 Pt     5.571353    3.215668   11.964342    ( 0.0000,  0.0000,  0.0000)
   5 Pt     8.360097    3.218048   11.943615    ( 0.0000,  0.0000,  0.0000)
   6 Pt     4.179909    5.639290   11.930258    ( 0.0000,  0.0000,  0.0000)
   7 Pt     6.966033    5.630881   11.946490    ( 0.0000,  0.0000,  0.0000)
   8 Pt     9.750827    5.629451   11.943715    ( 0.0000,  0.0000,  0.0000)
   9 Pt     0.001117    1.611255   14.263625    ( 0.0000,  0.0000,  0.0000)
  10 Pt     2.833611    1.636386   14.364014    ( 0.0000,  0.0000,  0.0000)
  11 Pt     5.569274    1.613890   14.305172    ( 0.0000,  0.0000,  0.0000)
  12 Pt     1.395789    4.018182   14.267526    ( 0.0000,  0.0000,  0.0000)
  13 Pt     4.182211    4.020565   14.298060    ( 0.0000,  0.0000,  0.0000)
  14 Pt     6.959434    4.019401   14.280954    ( 0.0000,  0.0000,  0.0000)
  15 Pt     2.790271    6.437106   14.254576    ( 0.0000,  0.0000,  0.0000)
  16 Pt     5.574626    6.428601   14.274604    ( 0.0000,  0.0000,  0.0000)
  17 Pt     8.357180    6.437714   14.267914    ( 0.0000,  0.0000,  0.0000)
  18 Pt     0.004652    0.002051   16.594420    ( 0.0000,  0.0000,  0.0000)
  19 Pt     2.789056    0.005266   16.596103    ( 0.0000,  0.0000,  0.0000)
  20 Pt     5.574494   -0.008220   16.587617    ( 0.0000,  0.0000,  0.0000)
  21 Pt     1.397482    2.411845   16.596730    ( 0.0000,  0.0000,  0.0000)
  22 Pt     4.227197    2.448847   17.012244    ( 0.0000,  0.0000,  0.0000)
  23 Pt     7.003666    2.404846   16.609650    ( 0.0000,  0.0000,  0.0000)
  24 Pt     2.774722    4.838782   16.584722    ( 0.0000,  0.0000,  0.0000)
  25 Pt     5.586168    4.859197   16.634696    ( 0.0000,  0.0000,  0.0000)
  26 Pt     8.362396    4.829256   16.596640    ( 0.0000,  0.0000,  0.0000)
  27 O      5.018253    3.010338   19.803632    ( 0.0000,  0.0000,  0.0000)
  28 C      4.805676    2.875580   18.680520    ( 0.0000,  0.0000,  0.0000)

Unit cell:
           periodic     x           y           z      points  spacing
  1. axis:    yes    8.358002    0.000000    0.000000    36     0.2011
  2. axis:    yes    4.179001    7.238242    0.000000    36     0.2011
  3. axis:    yes    0.000000    0.000000   28.549520   144     0.1983

  Lengths:   8.358002   8.358002  28.549520
  Angles:   90.000000  90.000000  60.000000

Effective grid spacing dv^(1/3) = 0.2100

     iter     time        total  log10-change:
                         energy  eigst   dens
iter:   1 14:04:42  -184.695301  -1.33
iter:   2 14:05:13  -192.112539  -1.26  -1.81
iter:   3 14:05:44  -181.236926  -1.97  -1.63
iter:   4 14:06:14  -181.026710  -2.61  -2.43
iter:   5 14:06:45  -180.881385  -2.90  -2.63
iter:   6 14:07:17  -180.854298c -3.00  -2.91
iter:   7 14:07:48  -180.853123c -3.99  -2.96
iter:   8 14:08:18  -180.841940c -4.09  -2.99
iter:   9 14:08:48  -180.840359c -4.32  -3.21
iter:  10 14:09:18  -180.837901c -4.63  -3.37
iter:  11 14:09:48  -180.837144c -4.81  -3.49
iter:  12 14:10:19  -180.836550c -5.41  -3.51
iter:  13 14:10:49  -180.836400c -5.27  -3.63
iter:  14 14:11:20  -180.836395c -5.48  -3.82
iter:  15 14:11:51  -180.836468c -5.88  -3.99
iter:  16 14:12:21  -180.836613c -6.03  -4.05c
iter:  17 14:12:54  -180.836684c -6.56  -4.27c
iter:  18 14:13:24  -180.836687c -6.64  -4.30c
iter:  19 14:13:56  -180.836732c -7.00  -4.29c
iter:  20 14:14:27  -180.836781c -6.72  -4.49c
iter:  21 14:14:59  -180.836745c -7.28  -4.88c
iter:  22 14:15:29  -180.836731c -7.81c -4.94c

Converged after 22 iterations.

Dipole moment: (-1.751944, -1.290952, 0.026891) |e|*Ang

Energy contributions relative to reference atoms: (reference = -13513203.275138)

Kinetic:       -292.454988
Potential:     +214.311313
External:        +0.000000
XC:             -89.174902
Entropy (-ST):   -1.648079
Local:          -12.694113
--------------------------
Free energy:   -181.660770
Extrapolated:  -180.836731

Showing only first 2 kpts
 Kpt  Band  Eigenvalues  Occupancy
  0   219     -1.42889    0.96386
  0   220     -1.31574    0.46160
  0   221     -1.29298    0.38575
  0   222     -1.25133    0.27222

  1   219     -1.54330    1.48987
  1   220     -1.50524    1.33246
  1   221     -1.49319    1.27784
  1   222     -1.46569    1.14677


Fermi level: -1.43613

No gap

Forces in eV/Ang:
  0 Pt    0.00387    0.00008   -0.05387
  1 Pt    0.01486    0.04747    0.13923
  2 Pt   -0.02283    0.02651    0.01498
  3 Pt    0.04990   -0.00711    0.13595
  4 Pt   -0.02204   -0.00985    0.09863
  5 Pt   -0.01763   -0.01597    0.02154
  6 Pt    0.01053   -0.03536    0.02157
  7 Pt   -0.02526   -0.00626    0.02473
  8 Pt    0.01836    0.00823   -0.00669
  9 Pt    0.08073   -0.01298   -0.02572
 10 Pt   -0.02905   -0.01309    0.06013
 11 Pt    0.02597    0.02475    0.18845
 12 Pt   -0.00901    0.03265   -0.01629
 13 Pt    0.04040    0.00629    0.22342
 14 Pt    0.01466    0.01010    0.02861
 15 Pt   -0.00781    0.00430   -0.02190
 16 Pt    0.02927    0.08407   -0.02654
 17 Pt    0.02588   -0.02207   -0.01929
 18 Pt    0.00016    0.00473   -0.01991
 19 Pt    0.05630    0.00256    0.11115
 20 Pt    0.02767    0.03865    0.02835
 21 Pt    0.02078    0.04964    0.09323
 22 Pt   -0.43663   -0.30312   -1.27202
 23 Pt    0.03124   -0.00795   -0.09276
 24 Pt    0.06250    0.00136    0.02243
 25 Pt    0.01135    0.07344   -0.15927
 26 Pt    0.02306    0.01285   -0.02484
 27 O     0.17961    0.15948    0.24555
 28 C    -0.23756   -0.22162    0.40630

System changes: positions 

Initializing position-dependent things.

Density initialized from wave functions
                                            
                                            
                                            
                                            
                                            
                                            
                     O                      
                     C                      
                                            
                 Pt     Pt     Pt           
            Pt     Pt     Pt                
       Pt     Pt  Pt Pt  Pt    Pt           
             Pt     Pt     Pt               
        Pt     Pt     Pt                    
                     Pt     Pt    Pt        
                Pt     Pt     Pt            
                                            
           Pt     Pt     Pt                 
                                            
                                            
                                            
                                            

Positions:
   0 Pt     1.397527    0.806246   11.954185    ( 0.0000,  0.0000,  0.0000)
   1 Pt     4.174091    0.807954   11.960909    ( 0.0000,  0.0000,  0.0000)
   2 Pt     6.971241    0.800389   11.931203    ( 0.0000,  0.0000,  0.0000)
   3 Pt     2.785640    3.209859   11.959298    ( 0.0000,  0.0000,  0.0000)
   4 Pt     5.571071    3.215567   11.964844    ( 0.0000,  0.0000,  0.0000)
   5 Pt     8.359974    3.217715   11.943984    ( 0.0000,  0.0000,  0.0000)
   6 Pt     4.179999    5.638853   11.930814    ( 0.0000,  0.0000,  0.0000)
   7 Pt     6.965685    5.630940   11.946834    ( 0.0000,  0.0000,  0.0000)
   8 Pt     9.751078    5.629575   11.943705    ( 0.0000,  0.0000,  0.0000)
   9 Pt     0.002424    1.610907   14.263641    ( 0.0000,  0.0000,  0.0000)
  10 Pt     2.831903    1.635400   14.363114    ( 0.0000,  0.0000,  0.0000)
  11 Pt     5.569213    1.614409   14.307561    ( 0.0000,  0.0000,  0.0000)
  12 Pt     1.395599    4.018518   14.267408    ( 0.0000,  0.0000,  0.0000)
  13 Pt     4.182786    4.020078   14.301110    ( 0.0000,  0.0000,  0.0000)
  14 Pt     6.959600    4.019533   14.281390    ( 0.0000,  0.0000,  0.0000)
  15 Pt     2.790092    6.437141   14.254683    ( 0.0000,  0.0000,  0.0000)
  16 Pt     5.575028    6.430115   14.274381    ( 0.0000,  0.0000,  0.0000)
  17 Pt     8.357394    6.437445   14.267754    ( 0.0000,  0.0000,  0.0000)
  18 Pt     0.004606    0.002026   16.594334    ( 0.0000,  0.0000,  0.0000)
  19 Pt     2.789928    0.005803   16.597427    ( 0.0000,  0.0000,  0.0000)
  20 Pt     5.574492   -0.006557   16.588391    ( 0.0000,  0.0000,  0.0000)
  21 Pt     1.398351    2.412384   16.597849    ( 0.0000,  0.0000,  0.0000)
  22 Pt     4.223550    2.446435   16.993937    ( 0.0000,  0.0000,  0.0000)
  23 Pt     7.002355    2.404908   16.608029    ( 0.0000,  0.0000,  0.0000)
  24 Pt     2.776555    4.837721   16.585547    ( 0.0000,  0.0000,  0.0000)
  25 Pt     5.585530    4.858737   16.631479    ( 0.0000,  0.0000,  0.0000)
  26 Pt     8.362258    4.829166   16.596516    ( 0.0000,  0.0000,  0.0000)
  27 O      5.019346    3.011926   19.810347    ( 0.0000,  0.0000,  0.0000)
  28 C      4.805144    2.873995   18.685805    ( 0.0000,  0.0000,  0.0000)

Unit cell:
           periodic     x           y           z      points  spacing
  1. axis:    yes    8.358002    0.000000    0.000000    36     0.2011
  2. axis:    yes    4.179001    7.238242    0.000000    36     0.2011
  3. axis:    yes    0.000000    0.000000   28.549520   144     0.1983

  Lengths:   8.358002   8.358002  28.549520
  Angles:   90.000000  90.000000  60.000000

Effective grid spacing dv^(1/3) = 0.2100

     iter     time        total  log10-change:
                         energy  eigst   dens
iter:   1 14:17:02  -180.929897  -2.63
iter:   2 14:17:33  -181.018748  -3.12  -2.71
iter:   3 14:18:05  -180.871315c -3.69  -2.51
iter:   4 14:18:37  -180.863999c -4.40  -3.15
iter:   5 14:19:09  -180.861958c -4.15  -3.45
iter:   6 14:19:39  -180.861728c -4.90  -3.65
iter:   7 14:20:10  -180.861668c -5.46  -3.78
iter:   8 14:20:43  -180.861619c -5.62  -3.88
iter:   9 14:21:15  -180.861711c -6.04  -4.12c
iter:  10 14:21:46  -180.861726c -6.48  -4.23c
iter:  11 14:22:19  -180.861755c -6.48  -4.25c
iter:  12 14:22:52  -180.861727c -6.96  -4.48c
iter:  13 14:23:24  -180.861701c -7.32  -4.53c
iter:  14 14:23:54  -180.861671c -6.93  -4.62c
iter:  15 14:24:24  -180.861677c -7.39  -4.87c
iter:  16 14:24:56  -180.861681c -8.20c -5.06c

Converged after 16 iterations.

Dipole moment: (-1.896756, -1.357674, 0.035258) |e|*Ang

Energy contributions relative to reference atoms: (reference = -13513203.275138)

Kinetic:       -293.914350
Potential:     +215.517142
External:        +0.000000
XC:             -88.947523
Entropy (-ST):   -1.649866
Local:          -12.692017
--------------------------
Free energy:   -181.686614
Extrapolated:  -180.861681

Showing only first 2 kpts
 Kpt  Band  Eigenvalues  Occupancy
  0   219     -1.42235    0.96124
  0   220     -1.31102    0.46620
  0   221     -1.28671    0.38495
  0   222     -1.24622    0.27438

  1   219     -1.53693    1.48852
  1   220     -1.49917    1.33222
  1   221     -1.48694    1.27677
  1   222     -1.45962    1.14650


Fermi level: -1.43011

No gap

Forces in eV/Ang:
  0 Pt    0.00713    0.00180   -0.04948
  1 Pt    0.01649    0.04258    0.13370
  2 Pt   -0.02516    0.02600    0.01816
  3 Pt    0.04674   -0.00337    0.13146
  4 Pt   -0.01932   -0.00819    0.10305
  5 Pt   -0.01813   -0.01100    0.01999
  6 Pt    0.00896   -0.03721    0.02524
  7 Pt   -0.02097   -0.00897    0.02259
  8 Pt    0.01554    0.00669   -0.00685
  9 Pt    0.06788   -0.00840   -0.02601
 10 Pt   -0.02102   -0.00861    0.06323
 11 Pt    0.02986    0.01461    0.15795
 12 Pt   -0.00626    0.03345   -0.01106
 13 Pt    0.03103    0.01504    0.19228
 14 Pt    0.01977    0.01136    0.01814
 15 Pt   -0.00522    0.00338   -0.01978
 16 Pt    0.02643    0.07207   -0.02880
 17 Pt    0.02691   -0.02079   -0.01343
 18 Pt    0.00109    0.00775   -0.02255
 19 Pt    0.04200   -0.01555    0.10039
 20 Pt    0.03483    0.00373    0.02287
 21 Pt   -0.00367    0.04648    0.08362
 22 Pt   -0.25928   -0.17976   -0.69773
 23 Pt    0.04450   -0.00196   -0.07697
 24 Pt    0.03305    0.02511    0.01718
 25 Pt    0.02150    0.07286   -0.14062
 26 Pt    0.03150    0.01717   -0.02651
 27 O     0.08893    0.10611   -0.03796
 28 C    -0.32588   -0.27342    0.17178

System changes: positions 

Initializing position-dependent things.

Density initialized from wave functions
                                            
                                            
                                            
                                            
                                            
                                            
                     O                      
                     C                      
                                            
                 Pt     Pt     Pt           
            Pt     Pt     Pt                
       Pt     Pt  Pt Pt  Pt    Pt           
             Pt     Pt     Pt               
        Pt     Pt     Pt                    
                     Pt     Pt    Pt        
                Pt     Pt     Pt            
                                            
           Pt     Pt     Pt                 
                                            
                                            
                                            
                                            

Positions:
   0 Pt     1.397234    0.806078   11.950221    ( 0.0000,  0.0000,  0.0000)
   1 Pt     4.174089    0.810340   11.968923    ( 0.0000,  0.0000,  0.0000)
   2 Pt     6.971285    0.801085   11.931047    ( 0.0000,  0.0000,  0.0000)
   3 Pt     2.787773    3.208872   11.966963    ( 0.0000,  0.0000,  0.0000)
   4 Pt     5.569643    3.214912   11.969023    ( 0.0000,  0.0000,  0.0000)
   5 Pt     8.359906    3.216197   11.945155    ( 0.0000,  0.0000,  0.0000)
   6 Pt     4.180510    5.638339   11.930942    ( 0.0000,  0.0000,  0.0000)
   7 Pt     6.964237    5.631599   11.948277    ( 0.0000,  0.0000,  0.0000)
   8 Pt     9.752216    5.630122   11.943074    ( 0.0000,  0.0000,  0.0000)
   9 Pt     0.009047    1.609469   14.262143    ( 0.0000,  0.0000,  0.0000)
  10 Pt     2.830056    1.634327   14.370947    ( 0.0000,  0.0000,  0.0000)
  11 Pt     5.568154    1.617832   14.323311    ( 0.0000,  0.0000,  0.0000)
  12 Pt     1.395161    4.019338   14.265787    ( 0.0000,  0.0000,  0.0000)
  13 Pt     4.185974    4.017268   14.318893    ( 0.0000,  0.0000,  0.0000)
  14 Pt     6.959399    4.019829   14.284514    ( 0.0000,  0.0000,  0.0000)
  15 Pt     2.790014    6.437875   14.252206    ( 0.0000,  0.0000,  0.0000)
  16 Pt     5.577334    6.436866   14.273259    ( 0.0000,  0.0000,  0.0000)
  17 Pt     8.358026    6.436967   14.266017    ( 0.0000,  0.0000,  0.0000)
  18 Pt     0.005085    0.002114   16.593185    ( 0.0000,  0.0000,  0.0000)
  19 Pt     2.794721    0.009937   16.602793    ( 0.0000,  0.0000,  0.0000)
  20 Pt     5.574413    0.001379   16.590382    ( 0.0000,  0.0000,  0.0000)
  21 Pt     1.404056    2.414566   16.602386    ( 0.0000,  0.0000,  0.0000)
  22 Pt     4.212333    2.439268   16.962064    ( 0.0000,  0.0000,  0.0000)
  23 Pt     7.000672    2.404103   16.601450    ( 0.0000,  0.0000,  0.0000)
  24 Pt     2.784485    4.833677   16.587412    ( 0.0000,  0.0000,  0.0000)
  25 Pt     5.584124    4.860640   16.620693    ( 0.0000,  0.0000,  0.0000)
  26 Pt     8.361660    4.828988   16.595628    ( 0.0000,  0.0000,  0.0000)
  27 O      5.022335    3.017276   19.801318    ( 0.0000,  0.0000,  0.0000)
  28 C      4.782461    2.854184   18.682929    ( 0.0000,  0.0000,  0.0000)

Unit cell:
           periodic     x           y           z      points  spacing
  1. axis:    yes    8.358002    0.000000    0.000000    36     0.2011
  2. axis:    yes    4.179001    7.238242    0.000000    36     0.2011
  3. axis:    yes    0.000000    0.000000   28.549520   144     0.1983

  Lengths:   8.358002   8.358002  28.549520
  Angles:   90.000000  90.000000  60.000000

Effective grid spacing dv^(1/3) = 0.2100

     iter     time        total  log10-change:
                         energy  eigst   dens
iter:   1 14:26:27  -181.126116  -1.85
iter:   2 14:26:57  -181.345400  -2.49  -2.43
iter:   3 14:27:28  -180.931257  -3.07  -2.27
iter:   4 14:27:59  -180.907312  -3.86  -2.81
iter:   5 14:28:31  -180.900744c -3.73  -3.07
iter:   6 14:29:01  -180.900453c -4.19  -3.28
iter:   7 14:29:32  -180.899851c -4.89  -3.40
iter:   8 14:30:03  -180.899938c -5.07  -3.50
iter:   9 14:30:35  -180.900390c -5.28  -3.70
iter:  10 14:31:05  -180.900201c -5.53  -3.76
iter:  11 14:31:36  -180.899910c -5.82  -3.73
iter:  12 14:32:06  -180.899796c -6.11  -3.96
iter:  13 14:32:38  -180.899774c -6.10  -4.14c
iter:  14 14:33:09  -180.899744c -6.31  -4.35c
iter:  15 14:33:39  -180.899735c -6.89  -4.57c
iter:  16 14:34:10  -180.899719c -7.28  -4.59c
iter:  17 14:34:40  -180.899736c -7.54c -4.56c

Converged after 17 iterations.

Dipole moment: (-2.609751, -1.722966, 0.048209) |e|*Ang

Energy contributions relative to reference atoms: (reference = -13513203.275138)

Kinetic:       -294.042896
Potential:     +215.582323
External:        +0.000000
XC:             -88.929215
Entropy (-ST):   -1.649880
Local:          -12.685009
--------------------------
Free energy:   -181.724676
Extrapolated:  -180.899736

Showing only first 2 kpts
 Kpt  Band  Eigenvalues  Occupancy
  0   219     -1.41048    0.95830
  0   220     -1.30081    0.47005
  0   221     -1.27555    0.38533
  0   222     -1.23846    0.28281

  1   219     -1.52835    1.49872
  1   220     -1.48809    1.33310
  1   221     -1.47352    1.26685
  1   222     -1.44650    1.13749


Fermi level: -1.41883

No gap

Forces in eV/Ang:
  0 Pt    0.01807    0.00659   -0.02657
  1 Pt    0.03234    0.02860    0.13039
  2 Pt   -0.04470    0.03225    0.04524
  3 Pt    0.04433    0.01793    0.13260
  4 Pt   -0.00895   -0.00115    0.13231
  5 Pt   -0.02836    0.00801    0.01765
  6 Pt    0.00462   -0.05771    0.05477
  7 Pt   -0.00923   -0.02563    0.01644
  8 Pt    0.00776    0.00221   -0.00368
  9 Pt    0.02089    0.01112   -0.02080
 10 Pt   -0.00988   -0.00109    0.02845
 11 Pt    0.05839   -0.02911   -0.00636
 12 Pt   -0.00218    0.04738    0.01411
 13 Pt   -0.00474    0.06212    0.01914
 14 Pt    0.05057    0.02049   -0.02134
 15 Pt   -0.00274   -0.00387    0.00702
 16 Pt    0.01741    0.03158   -0.03851
 17 Pt    0.03816   -0.02724    0.01334
 18 Pt    0.00052    0.01950   -0.02430
 19 Pt   -0.01737   -0.11294    0.08219
 20 Pt    0.07206   -0.14128    0.02120
 21 Pt   -0.12302    0.04615    0.06823
 22 Pt   -0.05865   -0.04227   -0.13910
 23 Pt    0.10064    0.02604   -0.02157
 24 Pt   -0.08286    0.12472    0.01512
 25 Pt    0.06789    0.07762   -0.08831
 26 Pt    0.06755    0.03448   -0.02708
 27 O    -0.04369   -0.02292   -0.39022
 28 C    -0.28028   -0.22370    0.05930

System changes: positions 

Initializing position-dependent things.

Density initialized from wave functions
                                            
                                            
                                            
                                            
                                            
                                            
                     O                      
                    C                       
                                            
                 Pt     Pt     Pt           
            Pt     Pt     Pt                
       Pt     Pt  Pt Pt  Pt    Pt           
             Pt     Pt     Pt               
        Pt     Pt     Pt                    
                     Pt     Pt    Pt        
                Pt     Pt     Pt            
                                            
           Pt     Pt     Pt                 
                                            
                                            
                                            
                                            

Positions:
   0 Pt     1.397428    0.806105   11.946557    ( 0.0000,  0.0000,  0.0000)
   1 Pt     4.174520    0.813011   11.978676    ( 0.0000,  0.0000,  0.0000)
   2 Pt     6.970705    0.802154   11.931302    ( 0.0000,  0.0000,  0.0000)
   3 Pt     2.790395    3.208139   11.976409    ( 0.0000,  0.0000,  0.0000)
   4 Pt     5.568221    3.214289   11.975518    ( 0.0000,  0.0000,  0.0000)
   5 Pt     8.359412    3.215032   11.946411    ( 0.0000,  0.0000,  0.0000)
   6 Pt     4.181060    5.637119   11.931603    ( 0.0000,  0.0000,  0.0000)
   7 Pt     6.962834    5.631768   11.949822    ( 0.0000,  0.0000,  0.0000)
   8 Pt     9.753348    5.630634   11.942373    ( 0.0000,  0.0000,  0.0000)
   9 Pt     0.015296    1.608469   14.260135    ( 0.0000,  0.0000,  0.0000)
  10 Pt     2.829501    1.634089   14.380639    ( 0.0000,  0.0000,  0.0000)
  11 Pt     5.568179    1.620466   14.337600    ( 0.0000,  0.0000,  0.0000)
  12 Pt     1.394810    4.020790   14.264416    ( 0.0000,  0.0000,  0.0000)
  13 Pt     4.188755    4.015900   14.335129    ( 0.0000,  0.0000,  0.0000)
  14 Pt     6.959982    4.020406   14.287060    ( 0.0000,  0.0000,  0.0000)
  15 Pt     2.790034    6.438552   14.249609    ( 0.0000,  0.0000,  0.0000)
  16 Pt     5.579748    6.443257   14.271543    ( 0.0000,  0.0000,  0.0000)
  17 Pt     8.359212    6.436176   14.264545    ( 0.0000,  0.0000,  0.0000)
  18 Pt     0.005636    0.002583   16.591655    ( 0.0000,  0.0000,  0.0000)
  19 Pt     2.798706    0.011726   16.608875    ( 0.0000,  0.0000,  0.0000)
  20 Pt     5.575683    0.005698   16.592250    ( 0.0000,  0.0000,  0.0000)
  21 Pt     1.407038    2.417272   16.607517    ( 0.0000,  0.0000,  0.0000)
  22 Pt     4.201584    2.432369   16.938796    ( 0.0000,  0.0000,  0.0000)
  23 Pt     7.002058    2.403657   16.595567    ( 0.0000,  0.0000,  0.0000)
  24 Pt     2.789708    4.832674   16.588976    ( 0.0000,  0.0000,  0.0000)
  25 Pt     5.584528    4.864642   16.610618    ( 0.0000,  0.0000,  0.0000)
  26 Pt     8.362375    4.829504   16.594366    ( 0.0000,  0.0000,  0.0000)
  27 O      5.024295    3.021033   19.782142    ( 0.0000,  0.0000,  0.0000)
  28 C      4.754485    2.830914   18.674914    ( 0.0000,  0.0000,  0.0000)

Unit cell:
           periodic     x           y           z      points  spacing
  1. axis:    yes    8.358002    0.000000    0.000000    36     0.2011
  2. axis:    yes    4.179001    7.238242    0.000000    36     0.2011
  3. axis:    yes    0.000000    0.000000   28.549520   144     0.1983

  Lengths:   8.358002   8.358002  28.549520
  Angles:   90.000000  90.000000  60.000000

Effective grid spacing dv^(1/3) = 0.2100

     iter     time        total  log10-change:
                         energy  eigst   dens
iter:   1 14:36:10  -181.156785  -1.88
iter:   2 14:36:40  -181.640903  -2.36  -2.42
iter:   3 14:37:11  -180.935757  -2.99  -2.18
iter:   4 14:37:43  -180.925997  -3.78  -3.01
iter:   5 14:38:14  -180.922543c -4.00  -3.16
iter:   6 14:38:45  -180.921661c -4.31  -3.34
iter:   7 14:39:15  -180.921300c -4.88  -3.46
iter:   8 14:39:46  -180.921558c -5.24  -3.61
iter:   9 14:40:18  -180.921549c -5.25  -3.67
iter:  10 14:40:48  -180.921414c -5.83  -3.86
iter:  11 14:41:20  -180.921164c -5.91  -3.97
iter:  12 14:41:53  -180.921154c -6.48  -4.08c
iter:  13 14:42:24  -180.921155c -6.28  -4.14c
iter:  14 14:42:54  -180.921169c -6.68  -4.36c
iter:  15 14:43:24  -180.921138c -6.96  -4.49c
iter:  16 14:43:55  -180.921140c -7.35  -4.61c
iter:  17 14:44:26  -180.921113c -7.32  -4.63c
iter:  18 14:44:58  -180.921117c -7.77c -4.89c

Converged after 18 iterations.

Dipole moment: (-2.857424, -1.850733, 0.057793) |e|*Ang

Energy contributions relative to reference atoms: (reference = -13513203.275138)

Kinetic:       -292.360437
Potential:     +214.121424
External:        +0.000000
XC:             -89.177285
Entropy (-ST):   -1.649070
Local:          -12.680283
--------------------------
Free energy:   -181.745652
Extrapolated:  -180.921117

Showing only first 2 kpts
 Kpt  Band  Eigenvalues  Occupancy
  0   219     -1.40226    0.96198
  0   220     -1.29203    0.47070
  0   221     -1.26672    0.38576
  0   222     -1.23290    0.29118

  1   219     -1.52271    1.51112
  1   220     -1.47974    1.33585
  1   221     -1.46307    1.25993
  1   222     -1.43508    1.12544


Fermi level: -1.40986

No gap

Forces in eV/Ang:
  0 Pt    0.02353    0.00948   -0.00251
  1 Pt    0.04022    0.00758    0.12791
  2 Pt   -0.05250    0.03049    0.06270
  3 Pt    0.03115    0.03599    0.13317
  4 Pt    0.00445    0.00699    0.14682
  5 Pt   -0.03015    0.02238    0.01176
  6 Pt   -0.00138   -0.06409    0.07311
  7 Pt    0.00342   -0.03354    0.00710
  8 Pt    0.00105   -0.00126   -0.00496
  9 Pt   -0.01612    0.02714   -0.01861
 10 Pt   -0.00997   -0.00131   -0.00518
 11 Pt    0.07609   -0.05915   -0.14029
 12 Pt    0.00269    0.05053    0.03346
 13 Pt   -0.02931    0.09044   -0.13764
 14 Pt    0.07331    0.02664   -0.05344
 15 Pt    0.00331   -0.00669    0.02614
 16 Pt    0.01216    0.00109   -0.05081
 17 Pt    0.04102   -0.02611    0.03535
 18 Pt    0.00282    0.02884   -0.01932
 19 Pt   -0.06695   -0.18012    0.05811
 20 Pt    0.09394   -0.23245    0.02556
 21 Pt   -0.20771    0.03856    0.04856
 22 Pt    0.04920    0.02379    0.05740
 23 Pt    0.12316    0.04971    0.02609
 24 Pt   -0.15930    0.18574    0.02318
 25 Pt    0.09782    0.06417   -0.02895
 26 Pt    0.08520    0.04286   -0.01711
 27 O    -0.15164   -0.06465   -0.34598
 28 C    -0.23104   -0.18460   -0.05536

System changes: positions 

Initializing position-dependent things.

Density initialized from wave functions
[...]
  18 Pt     0.005051    0.000837   16.592671    ( 0.0000,  0.0000,  0.0000)
  19 Pt     2.792886   -0.004013   16.547022    ( 0.0000,  0.0000,  0.0000)
  20 Pt     5.575544   -0.005807   16.546826    ( 0.0000,  0.0000,  0.0000)
  21 Pt     1.395744    2.419163   16.538847    ( 0.0000,  0.0000,  0.0000)
  22 Pt     4.184957    2.412571   16.534012    ( 0.0000,  0.0000,  0.0000)
  23 Pt     6.976144    2.418228   16.549664    ( 0.0000,  0.0000,  0.0000)
  24 Pt     2.783092    4.827494   16.542528    ( 0.0000,  0.0000,  0.0000)
  25 Pt     5.584879    4.828976   16.553308    ( 0.0000,  0.0000,  0.0000)
  26 Pt     8.366283    4.827924   16.549250    ( 0.0000,  0.0000,  0.0000)
  27 O      4.326584    2.477105   10.692807    ( 0.0000,  0.0000,  0.0000)

Unit cell:
           periodic     x           y           z      points  spacing
  1. axis:    yes    8.358002    0.000000    0.000000    36     0.2011
  2. axis:    yes    4.179001    7.238242    0.000000    36     0.2011
  3. axis:    yes    0.000000    0.000000   28.549520   144     0.1983

  Lengths:   8.358002   8.358002  28.549520
  Angles:   90.000000  90.000000  60.000000

Effective grid spacing dv^(1/3) = 0.2100

     iter     time        total  log10-change:
                         energy  eigst   dens
iter:   1 22:01:47  -170.653727  -3.20
iter:   2 22:02:16  -170.655533  -4.12  -3.40
iter:   3 22:02:45  -170.650810c -4.86  -3.27
iter:   4 22:03:13  -170.650491c -5.49  -3.70
iter:   5 22:03:42  -170.650299c -5.67  -3.80
iter:   6 22:04:11  -170.650261c -5.76  -3.95
iter:   7 22:04:40  -170.650305c -6.14  -4.11c
iter:   8 22:05:08  -170.650345c -6.71  -4.23c
iter:   9 22:05:37  -170.650418c -6.66  -4.36c
iter:  10 22:06:06  -170.650360c -7.35  -4.43c
iter:  11 22:06:34  -170.650371c -7.92c -4.65c

Converged after 11 iterations.

Dipole moment: (4.810979, 2.197811, 0.036660) |e|*Ang

Energy contributions relative to reference atoms: (reference = -13512175.647022)

Kinetic:       -286.823742
Potential:     +213.314582
External:        +0.000000
XC:             -83.382851
Entropy (-ST):   -1.602628
Local:          -12.957045
--------------------------
Free energy:   -171.451685
Extrapolated:  -170.650371

Showing only first 2 kpts
 Kpt  Band  Eigenvalues  Occupancy
  0   217     -1.58111    1.14019
  0   218     -1.46890    0.60313
  0   219     -1.39513    0.34227
  0   220     -1.37893    0.29873

  1   217     -1.62641    1.35190
  1   218     -1.61845    1.31655
  1   219     -1.61283    1.29104
  1   220     -1.58021    1.13576


Fermi level: -1.55289

No gap

Forces in eV/Ang:
  0 Pt   -0.00089   -0.01408    0.01092
  1 Pt    0.00095    0.03053    0.01233
  2 Pt   -0.03218   -0.00093   -0.02183
  3 Pt    0.02559   -0.00369    0.01147
  4 Pt    0.02090    0.03652   -0.08005
  5 Pt   -0.02282   -0.04340   -0.02573
  6 Pt   -0.00185   -0.05943   -0.02505
  7 Pt   -0.01338   -0.01568   -0.02048
  8 Pt   -0.03277    0.01856   -0.02554
  9 Pt    0.00067    0.00111    0.00178
 10 Pt   -0.01117   -0.01693    0.01184
 11 Pt   -0.01602   -0.01780    0.01035
 12 Pt   -0.00224   -0.01578    0.03864
 13 Pt   -0.00213    0.00679   -0.00879
 14 Pt    0.03539    0.00983   -0.00970
 15 Pt   -0.01175   -0.00666   -0.00498
 16 Pt   -0.00189   -0.00628    0.01538
 17 Pt    0.00903    0.00711    0.01420
 18 Pt    0.02511    0.01014   -0.00148
 19 Pt    0.00928    0.00455   -0.00620
 20 Pt   -0.00444    0.01519   -0.02411
 21 Pt    0.00487   -0.00493    0.01007
 22 Pt    0.01644    0.01890    0.03024
 23 Pt    0.01408    0.02110   -0.00656
 24 Pt    0.02801    0.00474   -0.01300
 25 Pt    0.01510    0.01208   -0.01940
 26 Pt   -0.01357    0.00657   -0.01623
 27 O    -0.02387    0.02678    0.02507

System changes: positions, numbers 

Initialize ...

species:
  Pt:
    name: Platinum
    id: 5ed695806aff0c961dba1a84acd7f4b2
    Z: 78.0
    valence: 16
    core: 62
    charge: 0.0
    file: /apps/Common/software/GPAW-setups/0.9.20000/Pt.PBE.gz
    compensation charges: {type: gauss,
                           rc: 0.41,
                           lmax: 2}
    cutoffs: {filter: 2.26,
              core: 2.26}
    valence states:
      #              energy  rcut
      - 6s(1.00)    -5.628   1.307
      - 5p(6.00)   -56.051   1.371
      - 6p(0.00)    -0.845   1.371
      - 5d(9.00)    -6.153   1.307
      -  s          21.583   1.307
      -  d          21.058   1.307
  
    # Using partial waves for Pt as LCAO basis

  O:
    name: Oxygen
    id: 32ecd46bf208036f09c70b0ec9a88b78
    Z: 8.0
    valence: 6
    core: 2
    charge: 0.0
    file: /apps/Common/software/GPAW-setups/0.9.20000/O.PBE.gz
    compensation charges: {type: gauss,
                           rc: 0.21,
                           lmax: 2}
    cutoffs: {filter: 1.17,
              core: 0.83}
    valence states:
      #              energy  rcut
      - 2s(2.00)   -23.961   0.688
      - 2p(4.00)    -9.029   0.598
      -  s           3.251   0.688
      -  p          18.182   0.598
      -  d           0.000   0.619
  
    # Using partial waves for O as LCAO basis

  C:
    name: Carbon
    id: 4aa54d4b901d75f77cc0ea3eec22967b
    Z: 6.0
    valence: 4
    core: 2
    charge: 0.0
    file: /apps/Common/software/GPAW-setups/0.9.20000/C.PBE.gz
    compensation charges: {type: gauss,
                           rc: 0.20,
                           lmax: 2}
    cutoffs: {filter: 1.14,
              core: 1.14}
    valence states:
      #              energy  rcut
      - 2s(2.00)   -13.751   0.635
      - 2p(2.00)    -5.284   0.635
      -  s          13.461   0.635
      -  p          21.927   0.635
      -  d           0.000   0.635
  
    # Using partial waves for C as LCAO basis

Reference energy: -13513203.275138  # eV

Spin-paired calculation

Convergence criteria:
 Maximum [total energy] change in last 3 cyles: 0.0005 eV / electron
 Maximum integral of absolute [dens]ity change: 0.0001 electrons / valence electron
 Maximum integral of absolute [eigenst]ate change: 4e-08 eV^2 / valence electron
 Maximum number of scf [iter]ations: 333
 (Square brackets indicate name in SCF output, whereas a 'c' in
 the SCF output indicates the quantity has converged.)

Symmetries present (total): 1

  ( 1  0  0)
  ( 0  1  0)
  ( 0  0  1)

16 k-points: 4 x 4 x 1 Monkhorst-Pack grid
8 k-points in the irreducible part of the Brillouin zone
       k-points in crystal coordinates                weights
   0:     0.12500000   -0.37500000    0.00000000          2/16
   1:     0.12500000   -0.12500000    0.00000000          2/16
   2:     0.12500000    0.12500000    0.00000000          2/16
   3:     0.12500000    0.37500000    0.00000000          2/16
   4:     0.37500000   -0.37500000    0.00000000          2/16
   5:     0.37500000   -0.12500000    0.00000000          2/16
   6:     0.37500000    0.12500000    0.00000000          2/16
   7:     0.37500000    0.37500000    0.00000000          2/16

Wave functions: Uniform real-space grid
  Kinetic energy operator: 8*3+1=25 point O(h^6) finite-difference Laplacian
  ScaLapack parameters: grid=1x1, blocksize=None
  Wavefunction extrapolation:
    Improved wavefunction reuse through dual PAW basis 

Occupation numbers: Fermi-Dirac:
  width: 0.1000  # eV
 

Eigensolver
   Davidson(niter=2) 

Densities:
  Coarse grid: 36*36*144 grid
  Fine grid: 72*72*288 grid
  Total Charge: 0.000000 

Density mixing:
  Method: separate
  Backend: pulay
  Linear mixing parameter: 0.05
  old densities: 5
  Damping of long wavelength oscillations: 50 

Hamiltonian:
  XC and Coulomb potentials evaluated on a 72*72*288 grid
  Using the PBE Exchange-Correlation functional
  Interpolation: tri-quintic (5. degree polynomial)
  Poisson solver: FastPoissonSolver using
    Stencil: 8*3+1=25 point O(h^6) finite-difference Laplacian
    FFT axes: [0, 1, 2]
    FST axes: []
 

XC parameters: PBE with 2 nearest neighbor stencil

Memory estimate:
  Process memory now: 591.11 MiB
  Calculator: 287.04 MiB
    Density: 12.81 MiB
      Arrays: 2.49 MiB
      Localized functions: 9.37 MiB
      Mixer: 0.96 MiB
    Hamiltonian: 2.21 MiB
      Arrays: 1.62 MiB
      XC: 0.00 MiB
      Poisson: 0.00 MiB
      vbar: 0.58 MiB
    Wavefunctions: 272.02 MiB
      Arrays psit_nG: 206.46 MiB
      Eigensolver: 63.70 MiB
      Projections: 0.56 MiB
      Projectors: 1.30 MiB

Total number of cores used: 30
Parallelization over k-points: 2
Domain decomposition: 1 x 3 x 5

Number of atoms: 29
Number of atomic orbitals: 332
Number of bands in calculation: 270
Number of valence electrons: 442
Bands to converge: occupied

... initialized

Initializing position-dependent things.

Density initialized from atomic densities
Creating initial wave functions:
  270 bands from LCAO basis set

                                            
                                            
                                            
                                            
                                            
                                            
                     O                      
                    C                       
                 Pt     Pt     Pt           
            Pt     Pt                       
                  Pt     PPt   Pt           
       Pt    PPt    PPt    Pt               
                                            
        Pt     Pt    PPt    Pt    Pt        
                                            
                Pt     Pt     Pt            
           Pt     Pt     Pt                 
                                            
                                            
                                            
                                            

Positions:
   0 Pt     1.404199    0.811353   11.946321    ( 0.0000,  0.0000,  0.0000)
   1 Pt     4.176979    0.810862   12.034661    ( 0.0000,  0.0000,  0.0000)
   2 Pt     6.970011    0.803936   11.940476    ( 0.0000,  0.0000,  0.0000)
   3 Pt     2.790452    3.211620   12.033852    ( 0.0000,  0.0000,  0.0000)
   4 Pt     5.574206    3.217774   12.016559    ( 0.0000,  0.0000,  0.0000)
   5 Pt     8.363174    3.222170   11.946156    ( 0.0000,  0.0000,  0.0000)
   6 Pt     4.181161    5.634967   11.939707    ( 0.0000,  0.0000,  0.0000)
   7 Pt     6.972482    5.631970   11.946137    ( 0.0000,  0.0000,  0.0000)
   8 Pt     9.752612    5.631309   11.951868    ( 0.0000,  0.0000,  0.0000)
   9 Pt     0.019619    1.617972   14.252722    ( 0.0000,  0.0000,  0.0000)
  10 Pt     2.823826    1.631308   14.406684    ( 0.0000,  0.0000,  0.0000)
  11 Pt     5.584702    1.616502   14.337142    ( 0.0000,  0.0000,  0.0000)
  12 Pt     1.399175    4.032198   14.299673    ( 0.0000,  0.0000,  0.0000)
  13 Pt     4.191403    4.031367   14.331846    ( 0.0000,  0.0000,  0.0000)
  14 Pt     6.983523    4.032876   14.283556    ( 0.0000,  0.0000,  0.0000)
  15 Pt     2.801535    6.444031   14.257979    ( 0.0000,  0.0000,  0.0000)
  16 Pt     5.589305    6.450264   14.251392    ( 0.0000,  0.0000,  0.0000)
  17 Pt     8.369555    6.435059   14.301259    ( 0.0000,  0.0000,  0.0000)
  18 Pt     0.011696    0.008816   16.592654    ( 0.0000,  0.0000,  0.0000)
  19 Pt     2.782099   -0.016748   16.626086    ( 0.0000,  0.0000,  0.0000)
  20 Pt     5.594271   -0.013546   16.607411    ( 0.0000,  0.0000,  0.0000)
  21 Pt     1.373885    2.420487   16.625328    ( 0.0000,  0.0000,  0.0000)
  22 Pt     4.182123    2.418795   16.824490    ( 0.0000,  0.0000,  0.0000)
  23 Pt     7.006307    2.413733   16.596104    ( 0.0000,  0.0000,  0.0000)
  24 Pt     2.782219    4.856769   16.605502    ( 0.0000,  0.0000,  0.0000)
  25 Pt     5.592750    4.864724   16.591076    ( 0.0000,  0.0000,  0.0000)
  26 Pt     8.368941    4.833441   16.616375    ( 0.0000,  0.0000,  0.0000)
  27 O      4.917970    2.952727   19.681299    ( 0.0000,  0.0000,  0.0000)
  28 C      4.640053    2.753113   18.581400    ( 0.0000,  0.0000,  0.0000)

Unit cell:
           periodic     x           y           z      points  spacing
  1. axis:    yes    8.358002    0.000000    0.000000    36     0.2011
  2. axis:    yes    4.179001    7.238242    0.000000    36     0.2011
  3. axis:    yes    0.000000    0.000000   28.549520   144     0.1983

  Lengths:   8.358002   8.358002  28.549520
  Angles:   90.000000  90.000000  60.000000

Effective grid spacing dv^(1/3) = 0.2100

     iter     time        total  log10-change:
                         energy  eigst   dens
iter:   1 22:07:34  -192.086090
iter:   2 22:08:03  -190.393442  -0.49  -1.41
iter:   3 22:08:32  -187.585991  -1.24  -1.45
iter:   4 22:09:01  -189.310482  -1.37  -1.50
iter:   5 22:09:31  -181.986801  -1.34  -1.49
iter:   6 22:10:00  -181.481037  -1.94  -1.81
iter:   7 22:10:29  -181.137793  -2.03  -1.92
iter:   8 22:10:58  -181.207982  -2.24  -2.14
iter:   9 22:11:27  -181.152806c -3.08  -2.24
iter:  10 22:11:56  -181.085428c -2.45  -2.29
iter:  11 22:12:25  -181.056754c -2.89  -2.50
iter:  12 22:12:54  -181.023072c -3.38  -2.62
iter:  13 22:13:23  -181.012110c -3.32  -2.78
iter:  14 22:13:52  -181.008309c -3.67  -2.98
iter:  15 22:14:21  -181.008206c -4.21  -3.12
iter:  16 22:14:50  -181.008548c -4.64  -3.19
iter:  17 22:15:19  -181.012047c -4.33  -3.26
iter:  18 22:15:48  -181.012543c -4.58  -3.42
iter:  19 22:16:17  -181.011362c -5.00  -3.41
iter:  20 22:16:47  -181.011140c -5.34  -3.68
iter:  21 22:17:16  -181.010961c -5.28  -3.77
iter:  22 22:17:45  -181.010974c -5.72  -3.94
iter:  23 22:18:14  -181.010919c -5.86  -4.14c
iter:  24 22:18:43  -181.010818c -6.55  -4.30c
iter:  25 22:19:12  -181.010803c -6.91  -4.41c
iter:  26 22:19:41  -181.010774c -7.56c -4.49c

Converged after 26 iterations.

Dipole moment: (0.670981, 0.144867, 0.058515) |e|*Ang

Energy contributions relative to reference atoms: (reference = -13513203.275138)

Kinetic:       -279.936886
Potential:     +203.344060
External:        +0.000000
XC:             -90.906288
Entropy (-ST):   -1.647077
Local:          -12.688122
--------------------------
Free energy:   -181.834313
Extrapolated:  -181.010774

Showing only first 2 kpts
 Kpt  Band  Eigenvalues  Occupancy
  0   219     -1.40226    0.99532
  0   220     -1.28151    0.45698
  0   221     -1.25043    0.35668
  0   222     -1.23888    0.32408

  1   219     -1.51718    1.51531
  1   220     -1.48313    1.37968
  1   221     -1.46671    1.30729
  1   222     -1.42022    1.08492


Fermi level: -1.40320

No gap
Timing:                                      incl.     excl.
-------------------------------------------------------------------
Density initialized from wave functions:    60.043    60.040   0.2% |
 Symmetrize density:                         0.002     0.002   0.0% |
Forces:                                   1251.427  1251.427   3.6% ||
Hamiltonian:                                12.013     0.008   0.0% |
 Atomic:                                     0.015     0.015   0.0% |
  XC Correction:                             0.000     0.000   0.0% |
 Calculate atomic Hamiltonians:              0.017     0.017   0.0% |
 Communicate:                                5.873     5.873   0.0% |
 Hartree integrate/restrict:                 0.151     0.151   0.0% |
 Initialize Hamiltonian:                     0.001     0.001   0.0% |
 Poisson:                                    2.895     0.111   0.0% |
  Communicate from 1D:                       0.587     0.587   0.0% |
  Communicate from 2D:                       0.605     0.605   0.0% |
  Communicate to 1D:                         0.504     0.504   0.0% |
  Communicate to 2D:                         0.622     0.622   0.0% |
  FFT 1D:                                    0.148     0.148   0.0% |
  FFT 2D:                                    0.319     0.319   0.0% |
 XC 3D grid:                                 3.013     3.013   0.0% |
 vbar:                                       0.040     0.040   0.0% |
LCAO initialization:                        15.506     0.821   0.0% |
 LCAO eigensolver:                           4.359     0.006   0.0% |
  Calculate projections:                     0.000     0.000   0.0% |
  DenseAtomicCorrection:                     0.001     0.001   0.0% |
  Distribute overlap matrix:                 3.306     3.306   0.0% |
  Orbital Layouts:                           1.029     1.029   0.0% |
  Potential matrix:                          0.001     0.001   0.0% |
  Sum over cells:                            0.017     0.017   0.0% |
 LCAO to grid:                               8.475     8.475   0.0% |
 Set positions (LCAO WFS):                   1.851     1.636   0.0% |
  Basic WFS set positions:                   0.003     0.003   0.0% |
  Basis functions set positions:             0.000     0.000   0.0% |
  P tci:                                     0.002     0.002   0.0% |
  ST tci:                                    0.110     0.110   0.0% |
  mktci:                                     0.099     0.099   0.0% |
Redistribute:                                0.061     0.061   0.0% |
SCF-cycle:                               31503.912   488.404   1.4% ||
 Davidson:                               30516.472  8343.106  24.0% |---------|
  Apply hamiltonian:                       871.296   871.296   2.5% ||
  Subspace diag:                          3469.798     0.560   0.0% |
   calc_h_matrix:                         1745.569   865.980   2.5% ||
    Apply hamiltonian:                     879.588   879.588   2.5% ||
   diagonalize:                            183.866   183.866   0.5% |
   rotate_psi:                            1539.802  1539.802   4.4% |-|
  calc. matrices:                        12371.153  5583.698  16.0% |-----|
   Apply hamiltonian:                     6787.454  6787.454  19.5% |-------|
  diagonalize:                            2471.720  2471.720   7.1% |--|
  rotate_psi:                             2989.400  2989.400   8.6% |--|
 Density:                                   55.369     0.023   0.0% |
  Atomic density matrices:                  10.022    10.022   0.0% |
  Mix:                                       5.986     5.986   0.0% |
  Multipole moments:                         2.455     2.455   0.0% |
  Pseudo density:                           36.883    36.846   0.1% |
   Symmetrize density:                       0.037     0.037   0.0% |
 Hamiltonian:                              221.498     0.109   0.0% |
  Atomic:                                    0.276     0.272   0.0% |
   XC Correction:                            0.004     0.004   0.0% |
  Calculate atomic Hamiltonians:             0.273     0.273   0.0% |
  Communicate:                             107.239   107.239   0.3% |
  Hartree integrate/restrict:                2.473     2.473   0.0% |
  Poisson:                                  48.356     1.647   0.0% |
   Communicate from 1D:                      9.747     9.747   0.0% |
   Communicate from 2D:                     10.236    10.236   0.0% |
   Communicate to 1D:                        8.401     8.401   0.0% |
   Communicate to 2D:                       10.789    10.789   0.0% |
   FFT 1D:                                   2.412     2.412   0.0% |
   FFT 2D:                                   5.125     5.125   0.0% |
  XC 3D grid:                               62.086    62.086   0.2% |
  vbar:                                      0.686     0.686   0.0% |
 Orthonormalize:                           222.169     0.044   0.0% |
  calc_s_matrix:                            22.902    22.902   0.1% |
  inverse-cholesky:                        155.153   155.153   0.4% |
  projections:                               0.011     0.011   0.0% |
  rotate_psi_s:                             44.060    44.060   0.1% |
Set symmetry:                                0.003     0.003   0.0% |
Other:                                    1985.340  1985.340   5.7% |-|
-------------------------------------------------------------------
Total:                                             34828.304 100.0%

Memory usage: 591.14 MiB
Date: Sun Feb 26 22:19:41 2023
