
  ___ ___ ___ _ _ _  
 |   |   |_  | | | | 
 | | | | | . | | | | 
 |__ |  _|___|_____|  22.8.0
 |___|_|             

User:   patriku@vera22-2
Date:   Fri Feb 24 08:59:19 2023
Arch:   x86_64
Pid:    3955504
CWD:    /cephyr/users/patriku/Vera/Assignment4/task6_vera/Pt
Python: 3.10.4
gpaw:   /apps/Arch/software/GPAW/22.8.0-foss-2022a/lib/python3.10/site-packages/gpaw
_gpaw:  /apps/Arch/software/GPAW/22.8.0-foss-2022a/lib/python3.10/site-packages/
        _gpaw.cpython-310-x86_64-linux-gnu.so
ase:    /apps/Arch/software/ASE/3.22.1-foss-2022a/lib/python3.10/site-packages/ase (version 3.22.1)
numpy:  /apps/Arch/software/SciPy-bundle/2022.05-foss-2022a/lib/python3.10/site-packages/numpy (version 1.22.3)
scipy:  /apps/Arch/software/SciPy-bundle/2022.05-foss-2022a/lib/python3.10/site-packages/scipy (version 1.8.1)
libxc:  5.2.3
units:  Angstrom and eV
cores: 20
OpenMP: False
OMP_NUM_THREADS: 1

Input parameters:
  kpts: [1 1 1]
  xc: PBE

System changes: positions, numbers, cell, pbc, initial_charges, initial_magmoms 

Initialize ...

species:
  Pt:
    name: Platinum
    id: 5ed695806aff0c961dba1a84acd7f4b2
    Z: 78.0
    valence: 16
    core: 62
    charge: 0.0
    file: /apps/Common/software/GPAW-setups/0.9.20000/Pt.PBE.gz
    compensation charges: {type: gauss,
                           rc: 0.41,
                           lmax: 2}
    cutoffs: {filter: 2.26,
              core: 2.26}
    valence states:
      #              energy  rcut
      - 6s(1.00)    -5.628   1.307
      - 5p(6.00)   -56.051   1.371
      - 6p(0.00)    -0.845   1.371
      - 5d(9.00)    -6.153   1.307
      -  s          21.583   1.307
      -  d          21.058   1.307
  
    # Using partial waves for Pt as LCAO basis

  O:
    name: Oxygen
    id: 32ecd46bf208036f09c70b0ec9a88b78
    Z: 8.0
    valence: 6
    core: 2
    charge: 0.0
    file: /apps/Common/software/GPAW-setups/0.9.20000/O.PBE.gz
    compensation charges: {type: gauss,
                           rc: 0.21,
                           lmax: 2}
    cutoffs: {filter: 1.17,
              core: 0.83}
    valence states:
      #              energy  rcut
      - 2s(2.00)   -23.961   0.688
      - 2p(4.00)    -9.029   0.598
      -  s           3.251   0.688
      -  p          18.182   0.598
      -  d           0.000   0.619
  
    # Using partial waves for O as LCAO basis

  C:
    name: Carbon
    id: 4aa54d4b901d75f77cc0ea3eec22967b
    Z: 6.0
    valence: 4
    core: 2
    charge: 0.0
    file: /apps/Common/software/GPAW-setups/0.9.20000/C.PBE.gz
    compensation charges: {type: gauss,
                           rc: 0.20,
                           lmax: 2}
    cutoffs: {filter: 1.14,
              core: 1.14}
    valence states:
      #              energy  rcut
      - 2s(2.00)   -13.751   0.635
      - 2p(2.00)    -5.284   0.635
      -  s          13.461   0.635
      -  p          21.927   0.635
      -  d           0.000   0.635
  
    # Using partial waves for C as LCAO basis

Reference energy: -13513203.275138  # eV

Spin-paired calculation

Convergence criteria:
 Maximum [total energy] change in last 3 cyles: 0.0005 eV / electron
 Maximum integral of absolute [dens]ity change: 0.0001 electrons / valence electron
 Maximum integral of absolute [eigenst]ate change: 4e-08 eV^2 / valence electron
 Maximum number of scf [iter]ations: 333
 (Square brackets indicate name in SCF output, whereas a 'c' in
 the SCF output indicates the quantity has converged.)

Symmetries present (total): 1

  ( 1  0  0)
  ( 0  1  0)
  ( 0  0  1)

1 k-point (Gamma)
1 k-point in the irreducible part of the Brillouin zone
       k-points in crystal coordinates                weights
   0:     0.00000000    0.00000000    0.00000000          1/1

Wave functions: Uniform real-space grid
  Kinetic energy operator: 8*3+1=25 point O(h^6) finite-difference Laplacian
  ScaLapack parameters: grid=1x1, blocksize=None
  Wavefunction extrapolation:
    Improved wavefunction reuse through dual PAW basis 

Occupation numbers: Fermi-Dirac:
  width: 0.1000  # eV
 

Eigensolver
   Davidson(niter=2) 

Densities:
  Coarse grid: 36*36*144 grid
  Fine grid: 72*72*288 grid
  Total Charge: 0.000000 

Density mixing:
  Method: separate
  Backend: pulay
  Linear mixing parameter: 0.05
  old densities: 5
  Damping of long wavelength oscillations: 50 

Hamiltonian:
  XC and Coulomb potentials evaluated on a 72*72*288 grid
  Using the PBE Exchange-Correlation functional
  Interpolation: tri-quintic (5. degree polynomial)
  Poisson solver: FastPoissonSolver using
    Stencil: 8*3+1=25 point O(h^6) finite-difference Laplacian
    FFT axes: [0, 1, 2]
    FST axes: []
 

XC parameters: PBE with 2 nearest neighbor stencil

Memory estimate:
  Process memory now: 222.92 MiB
  Calculator: 56.93 MiB
    Density: 9.61 MiB
      Arrays: 1.86 MiB
      Localized functions: 7.03 MiB
      Mixer: 0.72 MiB
    Hamiltonian: 1.65 MiB
      Arrays: 1.22 MiB
      XC: 0.00 MiB
      Poisson: 0.00 MiB
      vbar: 0.44 MiB
    Wavefunctions: 45.67 MiB
      Arrays psit_nG: 19.36 MiB
      Eigensolver: 25.28 MiB
      Projections: 0.05 MiB
      Projectors: 0.98 MiB

Total number of cores used: 20
Domain decomposition: 2 x 2 x 5

Number of atoms: 29
Number of atomic orbitals: 332
Number of bands in calculation: 270
Number of valence electrons: 442
Bands to converge: occupied

... initialized

Initializing position-dependent things.

Density initialized from atomic densities
Creating initial wave functions:
  270 bands from LCAO basis set

                                            
                                            
                                            
                                            
                                            
                 Pt     Pt     Pt           
            Pt    PPt    PPt   Pt           
       Pt     Pt     Pt                     
             Pt     Pt     Pt               
        Pt     Pt     Pt                    
                     Pt     Pt    Pt        
                Pt     Pt     Pt            
                                            
           Pt     Pt     Pt                 
                     O                      
                                            
                     C                      
                                            
                                            
                                            
                                            
                                            

Positions:
   0 Pt     1.393000    0.804249   11.948320    ( 0.0000,  0.0000,  0.0000)
   1 Pt     4.179001    0.804249   11.948320    ( 0.0000,  0.0000,  0.0000)
   2 Pt     6.965002    0.804249   11.948320    ( 0.0000,  0.0000,  0.0000)
   3 Pt     2.786001    3.216997   11.948320    ( 0.0000,  0.0000,  0.0000)
   4 Pt     5.572001    3.216997   11.948320    ( 0.0000,  0.0000,  0.0000)
   5 Pt     8.358002    3.216996   11.948320    ( 0.0000,  0.0000,  0.0000)
   6 Pt     4.179001    5.629744   11.948320    ( 0.0000,  0.0000,  0.0000)
   7 Pt     6.965002    5.629744   11.948320    ( 0.0000,  0.0000,  0.0000)
   8 Pt     9.751003    5.629744   11.948320    ( 0.0000,  0.0000,  0.0000)
   9 Pt    -0.000000    1.608498   14.274778    ( 0.0000,  0.0000,  0.0000)
  10 Pt     2.786001    1.608498   14.274778    ( 0.0000,  0.0000,  0.0000)
  11 Pt     5.572001    1.608498   14.274778    ( 0.0000,  0.0000,  0.0000)
  12 Pt     1.393000    4.021246   14.274778    ( 0.0000,  0.0000,  0.0000)
  13 Pt     4.179001    4.021246   14.274778    ( 0.0000,  0.0000,  0.0000)
  14 Pt     6.965002    4.021246   14.274778    ( 0.0000,  0.0000,  0.0000)
  15 Pt     2.786001    6.433993   14.274778    ( 0.0000,  0.0000,  0.0000)
  16 Pt     5.572001    6.433993   14.274778    ( 0.0000,  0.0000,  0.0000)
  17 Pt     8.358002    6.433993   14.274778    ( 0.0000,  0.0000,  0.0000)
  18 Pt    -0.000000   -0.000000   16.601199    ( 0.0000,  0.0000,  0.0000)
  19 Pt     2.786001   -0.000000   16.601199    ( 0.0000,  0.0000,  0.0000)
  20 Pt     5.572001   -0.000000   16.601199    ( 0.0000,  0.0000,  0.0000)
  21 Pt     1.393000    2.412747   16.601199    ( 0.0000,  0.0000,  0.0000)
  22 Pt     4.179001    2.412747   16.601199    ( 0.0000,  0.0000,  0.0000)
  23 Pt     6.965002    2.412747   16.601199    ( 0.0000,  0.0000,  0.0000)
  24 Pt     2.786001    4.825495   16.601199    ( 0.0000,  0.0000,  0.0000)
  25 Pt     5.572001    4.825495   16.601199    ( 0.0000,  0.0000,  0.0000)
  26 Pt     8.358002    4.825495   16.601199    ( 0.0000,  0.0000,  0.0000)
  27 O      5.000000    3.000000    9.575170    ( 0.0000,  0.0000,  0.0000)
  28 C      5.000000    3.000000    8.424830    ( 0.0000,  0.0000,  0.0000)

Unit cell:
           periodic     x           y           z      points  spacing
  1. axis:    yes    8.358002    0.000000    0.000000    36     0.2011
  2. axis:    yes    4.179001    7.238242    0.000000    36     0.2011
  3. axis:    yes    0.000000    0.000000   28.549520   144     0.1983

  Lengths:   8.358002   8.358002  28.549520
  Angles:   90.000000  90.000000  60.000000

Effective grid spacing dv^(1/3) = 0.2100

     iter     time        total  log10-change:
                         energy  eigst   dens
iter:   1 08:59:27  -177.513080
iter:   2 08:59:29  -176.871465  -0.49  -1.38
iter:   3 08:59:32  -181.055987  -1.23  -1.38
iter:   4 08:59:35  -174.382464  -1.83  -1.30
iter:   5 08:59:38  -167.701463  -1.27  -1.43
iter:   6 08:59:41  -165.624183  -1.26  -1.61
iter:   7 08:59:44  -165.512594  -1.56  -1.86
iter:   8 08:59:47  -165.356254  -2.32  -2.05
iter:   9 08:59:49  -165.312648c -3.15  -2.18
iter:  10 08:59:52  -165.279950c -3.55  -2.21
iter:  11 08:59:55  -165.388314c -2.81  -2.24
iter:  12 08:59:58  -165.184293c -2.56  -2.18
iter:  13 09:00:01  -165.175527c -3.46  -2.57
iter:  14 09:00:04  -165.164833c -3.45  -2.63
iter:  15 09:00:07  -165.168513c -3.58  -2.78
iter:  16 09:00:09  -165.164145c -3.95  -2.91
iter:  17 09:00:12  -165.165562c -4.22  -3.10
iter:  18 09:00:15  -165.164604c -4.60  -3.17
iter:  19 09:00:18  -165.164856c -4.92  -3.24
iter:  20 09:00:21  -165.164129c -5.29  -3.34
iter:  21 09:00:24  -165.164437c -5.12  -3.43
iter:  22 09:00:27  -165.163628c -5.37  -3.68
iter:  23 09:00:30  -165.164314c -5.57  -3.75
iter:  24 09:00:32  -165.164153c -6.44  -3.80
iter:  25 09:00:35  -165.164271c -6.50  -3.74
iter:  26 09:00:38  -165.164045c -6.15  -3.77
iter:  27 09:00:41  -165.164294c -5.95  -4.06c
iter:  28 09:00:44  -165.164168c -6.25  -4.24c
iter:  29 09:00:47  -165.164286c -6.80  -4.41c
iter:  30 09:00:50  -165.164226c -6.95  -4.41c
iter:  31 09:00:52  -165.164294c -7.28  -4.37c
iter:  32 09:00:55  -165.164266c -7.43c -4.26c

Converged after 32 iterations.

Dipole moment: (-2.701064, -1.546560, -0.158440) |e|*Ang

Energy contributions relative to reference atoms: (reference = -13513203.275138)

Kinetic:       -231.553666
Potential:     +161.136278
External:        +0.000000
XC:             -80.631898
Entropy (-ST):   -3.421873
Local:          -12.404044
--------------------------
Free energy:   -166.875202
Extrapolated:  -165.164266

 Band  Eigenvalues  Occupancy
    0    -54.16609    2.00000
    1    -54.13629    2.00000
    2    -54.11752    2.00000
    3    -54.11411    2.00000
    4    -54.10950    2.00000
    5    -54.10727    2.00000
    6    -54.10448    2.00000
    7    -54.09010    2.00000
    8    -54.08617    2.00000
    9    -53.93476    2.00000
   10    -53.90977    2.00000
   11    -53.90806    2.00000
   12    -53.90736    2.00000
   13    -53.90429    2.00000
   14    -53.90236    2.00000
   15    -53.89628    2.00000
   16    -53.89095    2.00000
   17    -53.88866    2.00000
   18    -53.88539    2.00000
   19    -53.72889    2.00000
   20    -53.71652    2.00000
   21    -53.71396    2.00000
   22    -53.71356    2.00000
   23    -53.71234    2.00000
   24    -53.70635    2.00000
   25    -53.70607    2.00000
   26    -53.66263    2.00000
   27    -53.65270    2.00000
   28    -53.64994    2.00000
   29    -53.64494    2.00000
   30    -53.62801    2.00000
   31    -53.62731    2.00000
   32    -53.62559    2.00000
   33    -53.62495    2.00000
   34    -53.62275    2.00000
   35    -53.62270    2.00000
   36    -53.61597    2.00000
   37    -53.61436    2.00000
   38    -53.61381    2.00000
   39    -53.61113    2.00000
   40    -53.61051    2.00000
   41    -53.60929    2.00000
   42    -53.60909    2.00000
   43    -53.60647    2.00000
   44    -53.60430    2.00000
   45    -53.60398    2.00000
   46    -53.59462    2.00000
   47    -53.59249    2.00000
   48    -53.46464    2.00000
   49    -53.45254    2.00000
   50    -53.44907    2.00000
   51    -53.44454    2.00000
   52    -53.44363    2.00000
   53    -53.44163    2.00000
   54    -53.44121    2.00000
   55    -53.44091    2.00000
   56    -53.43973    2.00000
   57    -53.43868    2.00000
   58    -53.43311    2.00000
   59    -53.43269    2.00000
   60    -53.43054    2.00000
   61    -53.42691    2.00000
   62    -53.42545    2.00000
   63    -53.42366    2.00000
   64    -53.42289    2.00000
   65    -53.42049    2.00000
   66    -53.41829    2.00000
   67    -53.41675    2.00000
   68    -53.41255    2.00000
   69    -53.40793    2.00000
   70    -53.40638    2.00000
   71    -53.40488    2.00000
   72    -53.40399    2.00000
   73    -53.40019    2.00000
   74    -53.39688    2.00000
   75    -53.39078    2.00000
   76    -53.38276    2.00000
   77    -53.38095    2.00000
   78    -53.37889    2.00000
   79    -53.37553    2.00000
   80    -53.37377    2.00000
   81    -25.61484    2.00000
   82    -11.47215    2.00000
   83     -9.95387    2.00000
   84     -8.42064    2.00000
   85     -8.41016    2.00000
   86     -8.26506    2.00000
   87     -7.80062    2.00000
   88     -7.55978    2.00000
   89     -7.55816    2.00000
   90     -7.55520    2.00000
   91     -7.55405    2.00000
   92     -7.55212    2.00000
   93     -7.55012    2.00000
   94     -6.91465    2.00000
   95     -6.91420    2.00000
   96     -6.91384    2.00000
   97     -6.90837    2.00000
   98     -6.90801    2.00000
   99     -6.90622    2.00000
  100     -6.55620    2.00000
  101     -6.54627    2.00000
  102     -6.54487    2.00000
  103     -6.54474    2.00000
  104     -6.54202    2.00000
  105     -6.54169    2.00000
  106     -6.17003    2.00000
  107     -6.16482    2.00000
  108     -6.16266    2.00000
  109     -6.15638    2.00000
  110     -6.15559    2.00000
  111     -6.15399    2.00000
  112     -6.10893    2.00000
  113     -6.10768    2.00000
  114     -6.05801    2.00000
  115     -6.05311    2.00000
  116     -6.05200    2.00000
  117     -6.04661    2.00000
  118     -5.62850    2.00000
  119     -5.34477    2.00000
  120     -5.34144    2.00000
  121     -5.33847    2.00000
  122     -5.33601    2.00000
  123     -5.10748    2.00000
  124     -5.10390    2.00000
  125     -5.10027    2.00000
  126     -5.09303    2.00000
  127     -5.09250    2.00000
  128     -5.08246    2.00000
  129     -4.89829    2.00000
  130     -4.73194    2.00000
  131     -4.72934    2.00000
  132     -4.72803    2.00000
  133     -4.72170    2.00000
  134     -4.71859    2.00000
  135     -4.70361    2.00000
  136     -4.52642    2.00000
  137     -4.52621    2.00000
  138     -4.44432    2.00000
  139     -4.44422    2.00000
  140     -4.42341    2.00000
  141     -4.18850    2.00000
  142     -4.18686    2.00000
  143     -4.16228    2.00000
  144     -4.15728    2.00000
  145     -4.14862    2.00000
  146     -4.14503    2.00000
  147     -4.14355    2.00000
  148     -4.11653    2.00000
  149     -4.05244    2.00000
  150     -4.04706    2.00000
  151     -4.04181    2.00000
  152     -4.03609    2.00000
  153     -4.03333    2.00000
  154     -4.01918    2.00000
  155     -4.00813    2.00000
  156     -4.00435    2.00000
  157     -3.98651    2.00000
  158     -3.98590    2.00000
  159     -3.92675    2.00000
  160     -3.91857    2.00000
  161     -3.90692    2.00000
  162     -3.90533    2.00000
  163     -3.90496    2.00000
  164     -3.90272    2.00000
  165     -3.43602    2.00000
  166     -3.42959    2.00000
  167     -3.41671    2.00000
  168     -3.40992    2.00000
  169     -3.40951    2.00000
  170     -3.37896    2.00000
  171     -2.98691    2.00000
  172     -2.96694    2.00000
  173     -2.96369    2.00000
  174     -2.95696    2.00000
  175     -2.95542    2.00000
  176     -2.95494    2.00000
  177     -2.90424    2.00000
  178     -2.90256    2.00000
  179     -2.89495    2.00000
  180     -2.89466    2.00000
  181     -2.68058    1.99998
  182     -2.68018    1.99998
  183     -2.65482    1.99997
  184     -2.65145    1.99997
  185     -2.65022    1.99997
  186     -2.64791    1.99997
  187     -2.63295    1.99997
  188     -2.63262    1.99996
  189     -2.30526    1.99908
  190     -2.30070    1.99903
  191     -2.29730    1.99900
  192     -2.29247    1.99895
  193     -2.29193    1.99894
  194     -2.28934    1.99892
  195     -2.02547    1.98494
  196     -2.01036    1.98250
  197     -2.00413    1.98139
  198     -1.93106    1.96174
  199     -1.93014    1.96139
  200     -1.92436    1.95914
  201     -1.92277    1.95850
  202     -1.92204    1.95820
  203     -1.91775    1.95641
  204     -1.78538    1.84551
  205     -1.77660    1.83252
  206     -1.77341    1.82757
  207     -1.77151    1.82454
  208     -1.68335    1.62309
  209     -1.68073    1.61500
  210     -1.67059    1.58249
  211     -1.67033    1.58163
  212     -1.67029    1.58152
  213     -1.66856    1.57576
  214     -1.58154    1.21746
  215     -1.57710    1.19623
  216     -1.57591    1.19046
  217     -1.57436    1.18299
  218     -1.57027    1.16316
  219     -1.56857    1.15486
  220     -1.56783    1.15125
  221     -1.56681    1.14627
  222     -1.56612    1.14289
  223     -1.56564    1.14056
  224     -1.56381    1.13155
  225     -1.56360    1.13053
  226     -1.56147    1.12008
  227     -1.42945    0.50742
  228     -1.40356    0.41574
  229     -1.40195    0.41045
  230     -1.31149    0.18924
  231     -1.30536    0.17899
  232     -1.29542    0.16344
  233     -1.29415    0.16153
  234     -1.29256    0.15919
  235     -1.29186    0.15817
  236     -0.42520    0.00003
  237      1.06500    0.00000
  238      1.10624    0.00000
  239      1.15128    0.00000
  240      1.15667    0.00000
  241      1.16629    0.00000
  242      1.26954    0.00000
  243      1.34200    0.00000
  244      1.49848    0.00000
  245      3.71142    0.00000
  246      3.96395    0.00000
  247      3.97207    0.00000
  248      4.09408    0.00000
  249      4.13255    0.00000
  250      4.14458    0.00000
  251      4.14795    0.00000
  252      4.14814    0.00000
  253      4.36334    0.00000
  254      4.58531    0.00000
  255      4.59088    0.00000
  256      4.63512    0.00000
  257      4.63650    0.00000
  258      4.64454    0.00000
  259      4.98886    0.00000
  260      5.43448    0.00000
  261      6.00992    0.00000
  262      6.05471    0.00000
  263      6.09186    0.00000
  264      6.11120    0.00000
  265      6.13615    0.00000
  266      6.15512    0.00000
  267      6.16898    0.00000
  268      6.18084    0.00000
  269      6.28219    0.00000

Fermi level: -1.53734

Gap: 0.132 eV
Transition (v -> c):
  (s=0, k=0, n=226, [0.00, 0.00, 0.00]) -> (s=0, k=0, n=227, [0.00, 0.00, 0.00])

Forces in eV/Ang:
  0 Pt   -0.00232    0.00139    1.16311
  1 Pt   -0.16051   -0.24894    1.32805
  2 Pt    0.10278   -0.14183    1.25513
  3 Pt   -0.33100   -0.02578    1.35244
  4 Pt    0.21896    0.09455    1.36238
  5 Pt    0.14901   -0.01118    1.21393
  6 Pt   -0.07761    0.19393    1.27626
  7 Pt    0.06578    0.13602    1.22034
  8 Pt    0.02008    0.00771    1.14316
  9 Pt    0.00523   -0.01100    0.01476
 10 Pt    0.02488    0.01179   -0.01383
 11 Pt   -0.01707   -0.14971    0.02385
 12 Pt    0.09029    0.00158    0.01879
 13 Pt   -0.14830    0.07719    0.04920
 14 Pt   -0.02491   -0.00384   -0.13804
 15 Pt   -0.02845   -0.02932    0.03403
 16 Pt   -0.00560   -0.00063    0.01148
 17 Pt    0.03119    0.07059    0.01527
 18 Pt    0.01484    0.00962   -1.21920
 19 Pt   -0.05179    0.02947   -1.19091
 20 Pt    0.04588    0.10775   -1.15864
 21 Pt   -0.00177   -0.04738   -1.19439
 22 Pt   -0.03734   -0.02645   -1.23234
 23 Pt    0.03733   -0.01264   -1.22090
 24 Pt    0.09495   -0.01636   -1.15795
 25 Pt    0.01133    0.04027   -1.21795
 26 Pt   -0.13868   -0.09778   -1.17372
 27 O     0.11185    0.04058   -1.56082
 28 C    -0.01623    0.03398    1.08121

System changes: positions 

Initializing position-dependent things.

Density initialized from wave functions
                                            
                                            
                                            
                                            
                                            
                 Pt     Pt     Pt           
            Pt    PPt    PPt   Pt           
       Pt     Pt     Pt                     
             Pt     Pt     Pt               
        Pt     Pt     Pt                    
                     Pt     Pt    Pt        
                Pt     Pt     Pt            
                                            
           Pt     Pt     Pt                 
                     O                      
                                            
                     C                      
                                            
                                            
                                            
                                            
                                            

Positions:
   0 Pt     1.392967    0.804269   11.964936    ( 0.0000,  0.0000,  0.0000)
   1 Pt     4.176708    0.800693   11.967292    ( 0.0000,  0.0000,  0.0000)
   2 Pt     6.966470    0.802223   11.966251    ( 0.0000,  0.0000,  0.0000)
   3 Pt     2.781272    3.216628   11.967641    ( 0.0000,  0.0000,  0.0000)
   4 Pt     5.575129    3.218347   11.967783    ( 0.0000,  0.0000,  0.0000)
   5 Pt     8.360131    3.216837   11.965662    ( 0.0000,  0.0000,  0.0000)
   6 Pt     4.177892    5.632514   11.966552    ( 0.0000,  0.0000,  0.0000)
   7 Pt     6.965942    5.631687   11.965754    ( 0.0000,  0.0000,  0.0000)
   8 Pt     9.751289    5.629854   11.964651    ( 0.0000,  0.0000,  0.0000)
   9 Pt     0.000075    1.608341   14.274989    ( 0.0000,  0.0000,  0.0000)
  10 Pt     2.786356    1.608667   14.274580    ( 0.0000,  0.0000,  0.0000)
  11 Pt     5.571758    1.606360   14.275119    ( 0.0000,  0.0000,  0.0000)
  12 Pt     1.394290    4.021268   14.275047    ( 0.0000,  0.0000,  0.0000)
  13 Pt     4.176883    4.022348   14.275481    ( 0.0000,  0.0000,  0.0000)
  14 Pt     6.964646    4.021191   14.272806    ( 0.0000,  0.0000,  0.0000)
  15 Pt     2.785594    6.433574   14.275264    ( 0.0000,  0.0000,  0.0000)
  16 Pt     5.571921    6.433984   14.274942    ( 0.0000,  0.0000,  0.0000)
  17 Pt     8.358448    6.435002   14.274996    ( 0.0000,  0.0000,  0.0000)
  18 Pt     0.000212    0.000137   16.583782    ( 0.0000,  0.0000,  0.0000)
  19 Pt     2.785261    0.000421   16.584186    ( 0.0000,  0.0000,  0.0000)
  20 Pt     5.572657    0.001539   16.584647    ( 0.0000,  0.0000,  0.0000)
  21 Pt     1.392975    2.412071   16.584136    ( 0.0000,  0.0000,  0.0000)
  22 Pt     4.178468    2.412369   16.583595    ( 0.0000,  0.0000,  0.0000)
  23 Pt     6.965535    2.412567   16.583758    ( 0.0000,  0.0000,  0.0000)
  24 Pt     2.787357    4.825261   16.584657    ( 0.0000,  0.0000,  0.0000)
  25 Pt     5.572163    4.826070   16.583800    ( 0.0000,  0.0000,  0.0000)
  26 Pt     8.356021    4.824098   16.584432    ( 0.0000,  0.0000,  0.0000)
  27 O      5.001598    3.000580    9.552873    ( 0.0000,  0.0000,  0.0000)
  28 C      4.999768    3.000485    8.440276    ( 0.0000,  0.0000,  0.0000)

Unit cell:
           periodic     x           y           z      points  spacing
  1. axis:    yes    8.358002    0.000000    0.000000    36     0.2011
  2. axis:    yes    4.179001    7.238242    0.000000    36     0.2011
  3. axis:    yes    0.000000    0.000000   28.549520   144     0.1983

  Lengths:   8.358002   8.358002  28.549520
  Angles:   90.000000  90.000000  60.000000

Effective grid spacing dv^(1/3) = 0.2100

     iter     time        total  log10-change:
                         energy  eigst   dens
iter:   1 09:01:07  -167.719302  -1.51
iter:   2 09:01:10  -177.894102  -1.62  -1.86
iter:   3 09:01:12  -168.267717  -1.98  -1.48
iter:   4 09:01:15  -165.818835  -2.82  -1.74
iter:   5 09:01:18  -165.652019  -4.12  -2.28
iter:   6 09:01:21  -165.632588c -3.95  -2.58
iter:   7 09:01:24  -165.575470c -3.50  -2.55
iter:   8 09:01:27  -165.573858c -4.10  -2.87
iter:   9 09:01:30  -165.563439c -4.37  -2.95
iter:  10 09:01:33  -165.564196c -4.62  -3.13
iter:  11 09:01:36  -165.561252c -4.53  -3.19
iter:  12 09:01:39  -165.562121c -4.97  -3.43
iter:  13 09:01:42  -165.560509c -5.34  -3.23
iter:  14 09:01:45  -165.561046c -5.86  -3.50
iter:  15 09:01:48  -165.559721c -5.66  -3.58
iter:  16 09:01:51  -165.560649c -5.41  -3.65
iter:  17 09:01:54  -165.560512c -6.18  -3.74
iter:  18 09:01:57  -165.560503c -6.40  -3.96
iter:  19 09:02:00  -165.560712c -6.77  -4.12c
iter:  20 09:02:03  -165.560871c -6.33  -3.84
iter:  21 09:02:06  -165.560703c -7.11  -4.35c
iter:  22 09:02:09  -165.560806c -7.42c -4.34c

Converged after 22 iterations.

Dipole moment: (-2.959917, -1.705651, -0.118666) |e|*Ang

Energy contributions relative to reference atoms: (reference = -13513203.275138)

Kinetic:       -216.395188
Potential:     +148.617631
External:        +0.000000
XC:             -83.662411
Entropy (-ST):   -3.345177
Local:          -12.448249
--------------------------
Free energy:   -167.233395
Extrapolated:  -165.560806

 Band  Eigenvalues  Occupancy
    0    -54.22325    2.00000
    1    -54.19450    2.00000
    2    -54.17589    2.00000
    3    -54.17240    2.00000
    4    -54.16984    2.00000
    5    -54.16569    2.00000
    6    -54.16311    2.00000
    7    -54.14969    2.00000
    8    -54.14449    2.00000
    9    -53.96602    2.00000
   10    -53.94513    2.00000
   11    -53.94313    2.00000
   12    -53.94239    2.00000
   13    -53.94103    2.00000
   14    -53.93943    2.00000
   15    -53.93244    2.00000
   16    -53.92643    2.00000
   17    -53.92501    2.00000
   18    -53.92183    2.00000
   19    -53.76247    2.00000
   20    -53.75134    2.00000
   21    -53.74941    2.00000
   22    -53.74782    2.00000
   23    -53.74683    2.00000
   24    -53.74240    2.00000
   25    -53.70175    2.00000
   26    -53.68740    2.00000
   27    -53.68486    2.00000
   28    -53.65956    2.00000
   29    -53.64819    2.00000
   30    -53.64235    2.00000
   31    -53.64183    2.00000
   32    -53.64128    2.00000
   33    -53.63911    2.00000
   34    -53.63849    2.00000
   35    -53.63827    2.00000
   36    -53.63322    2.00000
   37    -53.63256    2.00000
   38    -53.62928    2.00000
   39    -53.62830    2.00000
   40    -53.62711    2.00000
   41    -53.62501    2.00000
   42    -53.62395    2.00000
   43    -53.62386    2.00000
   44    -53.62149    2.00000
   45    -53.61920    2.00000
   46    -53.61110    2.00000
   47    -53.60781    2.00000
   48    -53.49541    2.00000
   49    -53.47678    2.00000
   50    -53.46384    2.00000
   51    -53.46084    2.00000
   52    -53.46029    2.00000
   53    -53.45800    2.00000
   54    -53.45763    2.00000
   55    -53.45713    2.00000
   56    -53.45640    2.00000
   57    -53.45601    2.00000
   58    -53.45543    2.00000
   59    -53.45519    2.00000
   60    -53.45382    2.00000
   61    -53.45327    2.00000
   62    -53.45169    2.00000
   63    -53.45142    2.00000
   64    -53.45127    2.00000
   65    -53.45108    2.00000
   66    -53.44659    2.00000
   67    -53.44655    2.00000
   68    -53.44250    2.00000
   69    -53.44143    2.00000
   70    -53.44035    2.00000
   71    -53.43928    2.00000
   72    -53.43870    2.00000
   73    -53.43458    2.00000
   74    -53.43115    2.00000
   75    -53.42651    2.00000
   76    -53.41874    2.00000
   77    -53.39563    2.00000
   78    -53.39357    2.00000
   79    -53.39126    2.00000
   80    -53.38957    2.00000
   81    -26.09537    2.00000
   82    -11.37063    2.00000
   83    -10.02294    2.00000
   84     -8.68203    2.00000
   85     -8.67471    2.00000
   86     -8.29640    2.00000
   87     -7.84476    2.00000
   88     -7.62991    2.00000
   89     -7.62926    2.00000
   90     -7.62522    2.00000
   91     -7.62515    2.00000
   92     -7.62501    2.00000
   93     -7.62336    2.00000
   94     -6.97297    2.00000
   95     -6.97217    2.00000
   96     -6.96991    2.00000
   97     -6.96887    2.00000
   98     -6.96862    2.00000
   99     -6.96707    2.00000
  100     -6.61452    2.00000
  101     -6.60727    2.00000
  102     -6.60639    2.00000
  103     -6.60619    2.00000
  104     -6.60445    2.00000
  105     -6.60181    2.00000
  106     -6.20516    2.00000
  107     -6.20131    2.00000
  108     -6.19911    2.00000
  109     -6.19801    2.00000
  110     -6.19692    2.00000
  111     -6.19494    2.00000
  112     -6.19289    2.00000
  113     -6.19224    2.00000
  114     -6.13867    2.00000
  115     -6.13690    2.00000
  116     -6.13365    2.00000
  117     -6.13228    2.00000
  118     -5.49160    2.00000
  119     -5.40974    2.00000
  120     -5.40835    2.00000
  121     -5.40649    2.00000
  122     -5.38909    2.00000
  123     -5.14734    2.00000
  124     -5.14353    2.00000
  125     -5.13748    2.00000
  126     -5.13430    2.00000
  127     -5.13390    2.00000
  128     -5.11640    2.00000
  129     -4.90540    2.00000
  130     -4.76324    2.00000
  131     -4.76137    2.00000
  132     -4.75932    2.00000
  133     -4.75584    2.00000
  134     -4.75415    2.00000
  135     -4.73738    2.00000
  136     -4.56389    2.00000
  137     -4.56184    2.00000
  138     -4.49526    2.00000
  139     -4.49511    2.00000
  140     -4.44959    2.00000
  141     -4.23488    2.00000
  142     -4.23355    2.00000
  143     -4.19760    2.00000
  144     -4.19488    2.00000
  145     -4.18713    2.00000
  146     -4.18535    2.00000
  147     -4.18389    2.00000
  148     -4.15539    2.00000
  149     -4.07559    2.00000
  150     -4.07002    2.00000
  151     -4.06228    2.00000
  152     -4.05869    2.00000
  153     -4.05697    2.00000
  154     -4.04671    2.00000
  155     -4.03020    2.00000
  156     -4.02873    2.00000
  157     -4.01045    2.00000
  158     -4.00597    2.00000
  159     -4.00583    2.00000
  160     -4.00169    2.00000
  161     -3.99465    2.00000
  162     -3.99251    2.00000
  163     -3.99196    2.00000
  164     -3.99076    2.00000
  165     -3.46580    2.00000
  166     -3.45891    2.00000
  167     -3.44527    2.00000
  168     -3.43904    2.00000
  169     -3.43796    2.00000
  170     -3.40715    2.00000
  171     -3.00629    2.00000
  172     -2.99287    2.00000
  173     -2.98973    2.00000
  174     -2.98421    2.00000
  175     -2.98098    2.00000
  176     -2.97925    2.00000
  177     -2.90394    2.00000
  178     -2.89980    2.00000
  179     -2.89620    2.00000
  180     -2.89370    2.00000
  181     -2.72428    1.99998
  182     -2.72221    1.99998
  183     -2.70421    1.99998
  184     -2.70020    1.99998
  185     -2.69876    1.99998
  186     -2.69644    1.99998
  187     -2.67154    1.99997
  188     -2.67067    1.99997
  189     -2.31056    1.99904
  190     -2.30996    1.99904
  191     -2.30686    1.99901
  192     -2.30118    1.99895
  193     -2.30010    1.99894
  194     -2.29485    1.99888
  195     -2.05083    1.98724
  196     -2.04509    1.98649
  197     -2.03396    1.98491
  198     -1.96069    1.96887
  199     -1.95863    1.96823
  200     -1.95495    1.96706
  201     -1.95276    1.96634
  202     -1.95059    1.96561
  203     -1.94745    1.96453
  204     -1.79258    1.84342
  205     -1.78380    1.83026
  206     -1.78071    1.82540
  207     -1.77949    1.82345
  208     -1.70428    1.65918
  209     -1.70113    1.65020
  210     -1.69142    1.62130
  211     -1.68894    1.61362
  212     -1.68557    1.60298
  213     -1.68527    1.60203
  214     -1.58628    1.19870
  215     -1.58613    1.19799
  216     -1.58347    1.18519
  217     -1.58072    1.17187
  218     -1.57947    1.16579
  219     -1.57871    1.16211
  220     -1.57572    1.14750
  221     -1.57472    1.14263
  222     -1.57372    1.13772
  223     -1.57294    1.13390
  224     -1.56878    1.11340
  225     -1.56865    1.11278
  226     -1.56596    1.09944
  227     -1.43910    0.51119
  228     -1.40805    0.40218
  229     -1.40715    0.39929
  230     -1.30579    0.16603
  231     -1.29947    0.15665
  232     -1.29154    0.14558
  233     -1.28985    0.14331
  234     -1.28896    0.14214
  235     -1.28716    0.13977
  236     -0.43519    0.00003
  237      1.15096    0.00000
  238      1.16457    0.00000
  239      1.18136    0.00000
  240      1.18740    0.00000
  241      1.19829    0.00000
  242      1.35624    0.00000
  243      1.71888    0.00000
  244      1.77669    0.00000
  245      3.73674    0.00000
  246      3.94350    0.00000
  247      3.95344    0.00000
  248      4.08488    0.00000
  249      4.10947    0.00000
  250      4.12363    0.00000
  251      4.12518    0.00000
  252      4.12803    0.00000
  253      4.37711    0.00000
  254      4.59198    0.00000
  255      4.59847    0.00000
  256      4.64004    0.00000
  257      4.64332    0.00000
  258      4.64561    0.00000
  259      4.92005    0.00000
  260      5.03253    0.00000
  261      5.36202    0.00000
  262      6.02226    0.00000
  263      6.04774    0.00000
  264      6.08517    0.00000
  265      6.12251    0.00000
  266      6.14181    0.00000
  267      6.15849    0.00000
  268      6.17241    0.00000
  269      6.30344    0.00000

Fermi level: -1.54600

Gap: 0.127 eV
Transition (v -> c):
  (s=0, k=0, n=226, [0.00, 0.00, 0.00]) -> (s=0, k=0, n=227, [0.00, 0.00, 0.00])

Forces in eV/Ang:
  0 Pt    0.02157    0.01126    1.07414
  1 Pt   -0.15434   -0.23061    1.24386
  2 Pt    0.07729   -0.12463    1.17615
  3 Pt   -0.31493   -0.02883    1.26894
  4 Pt    0.23281    0.10053    1.35880
  5 Pt    0.12086   -0.01917    1.13557
  6 Pt   -0.07242    0.16615    1.19645
  7 Pt    0.03950    0.11631    1.14150
  8 Pt    0.04181    0.01713    1.06418
  9 Pt   -0.00166    0.00134    0.01508
 10 Pt    0.02940    0.01275   -0.02256
 11 Pt   -0.01682   -0.13520    0.01010
 12 Pt    0.08256    0.00623    0.03622
 13 Pt   -0.13402    0.06891    0.03170
 14 Pt   -0.02620   -0.00518   -0.13756
 15 Pt   -0.03438   -0.03155    0.03971
 16 Pt    0.00281   -0.01172    0.01099
 17 Pt    0.03177    0.06333    0.03452
 18 Pt   -0.00008   -0.00100   -1.15389
 19 Pt   -0.04253    0.02651   -1.12573
 20 Pt    0.05095    0.11194   -1.09890
 21 Pt    0.00170   -0.03511   -1.12884
 22 Pt   -0.04932   -0.03621   -1.16268
 23 Pt    0.04729   -0.00612   -1.15193
 24 Pt    0.09787   -0.01339   -1.09587
 25 Pt    0.02408    0.04866   -1.14852
 26 Pt   -0.15410   -0.10819   -1.12756
 27 O     0.12951    0.00860    2.80031
 28 C    -0.02025    0.01762   -3.38667

System changes: positions 

Initializing position-dependent things.

Density initialized from wave functions
                                            
                                            
                                            
                                            
                                            
                 Pt     Pt    Pt            
            Pt    PPt    PPt   Pt           
       Pt     Pt     Pt                     
             Pt     Pt     Pt               
        Pt     Pt    PPt                    
                            Pt    Pt        
                Pt     Pt     Pt            
           Pt     Pt     Pt                 
                                            
                     O                      
                                            
                     C                      
                                            
                                            
                                            
                                            
                                            

Positions:
   0 Pt     1.393499    0.804772   12.102097    ( 0.0000,  0.0000,  0.0000)
   1 Pt     4.157572    0.771312   12.124495    ( 0.0000,  0.0000,  0.0000)
   2 Pt     6.977991    0.785713   12.114841    ( 0.0000,  0.0000,  0.0000)
   3 Pt     2.741925    3.213418   12.127806    ( 0.0000,  0.0000,  0.0000)
   4 Pt     5.601990    3.229946   12.131861    ( 0.0000,  0.0000,  0.0000)
   5 Pt     8.377134    3.215218   12.109309    ( 0.0000,  0.0000,  0.0000)
   6 Pt     4.168715    5.654944   12.117661    ( 0.0000,  0.0000,  0.0000)
   7 Pt     6.972977    5.647412   12.110156    ( 0.0000,  0.0000,  0.0000)
   8 Pt     9.754448    5.631103   12.099747    ( 0.0000,  0.0000,  0.0000)
   9 Pt     0.000471    1.607435   14.276779    ( 0.0000,  0.0000,  0.0000)
  10 Pt     2.789509    1.610121   14.272617    ( 0.0000,  0.0000,  0.0000)
  11 Pt     5.569709    1.588809   14.277526    ( 0.0000,  0.0000,  0.0000)
  12 Pt     1.404910    4.021617   14.277904    ( 0.0000,  0.0000,  0.0000)
  13 Pt     4.159494    4.031371   14.280816    ( 0.0000,  0.0000,  0.0000)
  14 Pt     6.961600    4.020682   14.256185    ( 0.0000,  0.0000,  0.0000)
  15 Pt     2.781964    6.429965   14.279558    ( 0.0000,  0.0000,  0.0000)
  16 Pt     5.571532    6.433531   14.276309    ( 0.0000,  0.0000,  0.0000)
  17 Pt     8.362227    6.443263   14.277490    ( 0.0000,  0.0000,  0.0000)
  18 Pt     0.001493    0.000936   16.439057    ( 0.0000,  0.0000,  0.0000)
  19 Pt     2.779334    0.003872   16.442867    ( 0.0000,  0.0000,  0.0000)
  20 Pt     5.578359    0.014668   16.447032    ( 0.0000,  0.0000,  0.0000)
  21 Pt     1.392879    2.406777   16.442409    ( 0.0000,  0.0000,  0.0000)
  22 Pt     4.173560    2.408850   16.437434    ( 0.0000,  0.0000,  0.0000)
  23 Pt     6.970372    2.411264   16.438952    ( 0.0000,  0.0000,  0.0000)
  24 Pt     2.798900    4.823390   16.447204    ( 0.0000,  0.0000,  0.0000)
  25 Pt     5.573962    4.831209   16.439366    ( 0.0000,  0.0000,  0.0000)
  26 Pt     8.338783    4.811959   16.444538    ( 0.0000,  0.0000,  0.0000)
  27 O      5.015679    3.004384    9.512913    ( 0.0000,  0.0000,  0.0000)
  28 C      4.997676    3.004025    8.418805    ( 0.0000,  0.0000,  0.0000)

Unit cell:
           periodic     x           y           z      points  spacing
  1. axis:    yes    8.358002    0.000000    0.000000    36     0.2011
  2. axis:    yes    4.179001    7.238242    0.000000    36     0.2011
  3. axis:    yes    0.000000    0.000000   28.549520   144     0.1983

  Lengths:   8.358002   8.358002  28.549520
  Angles:   90.000000  90.000000  60.000000

Effective grid spacing dv^(1/3) = 0.2100

     iter     time        total  log10-change:
                         energy  eigst   dens
iter:   1 09:02:20  -246.540195  +0.21
iter:   2 09:02:23  -172.835779  -0.49  -1.09
iter:   3 09:02:26  -198.534795  -0.95  -1.61
iter:   4 09:02:29  -170.152802  -1.69  -1.38
iter:   5 09:02:32  -168.883190  -2.02  -1.79
iter:   6 09:02:35  -169.200823  -2.67  -1.93
iter:   7 09:02:38  -168.947246  -2.34  -1.91
iter:   8 09:02:41  -168.322334  -2.48  -1.98
iter:   9 09:02:44  -168.287089  -2.83  -2.27
iter:  10 09:02:47  -168.172631c -3.33  -2.35
iter:  11 09:02:50  -168.144892c -3.31  -2.54
iter:  12 09:02:53  -168.148516c -3.95  -2.68
iter:  13 09:02:56  -168.154685c -3.89  -2.74
iter:  14 09:02:59  -168.162492c -4.16  -2.83
iter:  15 09:03:01  -168.160321c -4.07  -2.85
iter:  16 09:03:04  -168.159206c -4.80  -3.11
iter:  17 09:03:07  -168.158282c -4.41  -3.26
iter:  18 09:03:10  -168.157868c -5.06  -3.55
iter:  19 09:03:13  -168.157320c -5.62  -3.61
iter:  20 09:03:16  -168.156739c -6.08  -3.60
iter:  21 09:03:19  -168.156571c -6.30  -3.67
iter:  22 09:03:22  -168.156442c -6.09  -3.73
iter:  23 09:03:25  -168.156752c -5.99  -3.86
iter:  24 09:03:28  -168.157237c -6.13  -4.03c
iter:  25 09:03:31  -168.157443c -6.41  -4.24c
iter:  26 09:03:34  -168.157507c -7.04  -4.30c
iter:  27 09:03:38  -168.157305c -7.12  -4.20c
iter:  28 09:03:41  -168.157025c -6.78  -4.50c
iter:  29 09:03:44  -168.156973c -7.47c -4.84c

Converged after 29 iterations.

Dipole moment: (-5.194307, -3.068332, -0.056531) |e|*Ang

Energy contributions relative to reference atoms: (reference = -13513203.275138)

Kinetic:        -95.941901
Potential:      +46.504552
External:        +0.000000
XC:            -104.656113
Entropy (-ST):   -2.620896
Local:          -12.753064
--------------------------
Free energy:   -169.467421
Extrapolated:  -168.156973

 Band  Eigenvalues  Occupancy
    0    -54.52063    2.00000
    1    -54.48897    2.00000
    2    -54.48026    2.00000
    3    -54.46564    2.00000
    4    -54.45955    2.00000
    5    -54.45714    2.00000
    6    -54.44835    2.00000
    7    -54.44574    2.00000
    8    -54.42913    2.00000
    9    -54.11326    2.00000
   10    -54.10848    2.00000
   11    -54.09619    2.00000
   12    -54.09536    2.00000
   13    -54.08842    2.00000
   14    -54.07755    2.00000
   15    -54.07389    2.00000
   16    -54.06849    2.00000
   17    -54.06659    2.00000
   18    -54.05884    2.00000
   19    -53.89731    2.00000
   20    -53.89481    2.00000
   21    -53.88556    2.00000
   22    -53.88385    2.00000
   23    -53.87617    2.00000
   24    -53.87303    2.00000
   25    -53.81957    2.00000
   26    -53.81652    2.00000
   27    -53.65254    2.00000
   28    -53.61984    2.00000
   29    -53.61583    2.00000
   30    -53.59653    2.00000
   31    -53.59485    2.00000
   32    -53.58614    2.00000
   33    -53.58073    2.00000
   34    -53.57781    2.00000
   35    -53.57592    2.00000
   36    -53.57236    2.00000
   37    -53.56756    2.00000
   38    -53.56219    2.00000
   39    -53.55995    2.00000
   40    -53.55551    2.00000
   41    -53.55378    2.00000
   42    -53.55165    2.00000
   43    -53.54280    2.00000
   44    -53.54170    2.00000
   45    -53.53965    2.00000
   46    -53.53406    2.00000
   47    -53.53147    2.00000
   48    -53.53014    2.00000
   49    -53.52857    2.00000
   50    -53.52588    2.00000
   51    -53.52007    2.00000
   52    -53.51922    2.00000
   53    -53.51686    2.00000
   54    -53.51590    2.00000
   55    -53.51437    2.00000
   56    -53.51267    2.00000
   57    -53.51173    2.00000
   58    -53.51055    2.00000
   59    -53.50707    2.00000
   60    -53.50571    2.00000
   61    -53.50315    2.00000
   62    -53.50100    2.00000
   63    -53.49982    2.00000
   64    -53.49907    2.00000
   65    -53.40939    2.00000
   66    -53.39936    2.00000
   67    -53.39567    2.00000
   68    -53.38243    2.00000
   69    -53.37658    2.00000
   70    -53.37582    2.00000
   71    -53.37406    2.00000
   72    -53.36774    2.00000
   73    -53.36466    2.00000
   74    -53.36296    2.00000
   75    -53.35919    2.00000
   76    -53.35597    2.00000
   77    -53.31927    2.00000
   78    -53.31596    2.00000
   79    -53.30887    2.00000
   80    -53.30708    2.00000
   81    -26.11241    2.00000
   82    -10.88609    2.00000
   83    -10.43050    2.00000
   84     -8.58998    2.00000
   85     -8.57948    2.00000
   86     -8.36854    2.00000
   87     -8.09890    2.00000
   88     -8.08867    2.00000
   89     -8.08451    2.00000
   90     -8.06829    2.00000
   91     -8.06727    2.00000
   92     -8.05446    2.00000
   93     -8.02750    2.00000
   94     -7.36040    2.00000
   95     -7.34697    2.00000
   96     -7.33990    2.00000
   97     -7.33750    2.00000
   98     -7.32869    2.00000
   99     -7.29872    2.00000
  100     -7.03415    2.00000
  101     -7.02934    2.00000
  102     -7.00250    2.00000
  103     -6.99738    2.00000
  104     -6.99420    2.00000
  105     -6.98460    2.00000
  106     -6.75374    2.00000
  107     -6.72305    2.00000
  108     -6.70538    2.00000
  109     -6.68613    2.00000
  110     -6.65739    2.00000
  111     -6.64089    2.00000
  112     -6.33610    2.00000
  113     -6.32884    2.00000
  114     -6.32455    2.00000
  115     -6.28831    2.00000
  116     -6.28716    2.00000
  117     -6.25990    2.00000
  118     -5.83834    2.00000
  119     -5.83070    2.00000
  120     -5.82090    2.00000
  121     -5.81535    2.00000
  122     -5.41421    2.00000
  123     -5.41313    2.00000
  124     -5.39933    2.00000
  125     -5.39415    2.00000
  126     -5.39034    2.00000
  127     -5.36672    2.00000
  128     -5.20629    2.00000
  129     -4.83975    2.00000
  130     -4.83632    2.00000
  131     -4.78960    2.00000
  132     -4.77364    2.00000
  133     -4.76643    2.00000
  134     -4.76097    2.00000
  135     -4.74586    2.00000
  136     -4.73446    2.00000
  137     -4.70768    2.00000
  138     -4.68694    2.00000
  139     -4.66160    2.00000
  140     -4.62588    2.00000
  141     -4.61724    2.00000
  142     -4.59145    2.00000
  143     -4.58146    2.00000
  144     -4.57792    2.00000
  145     -4.57617    2.00000
  146     -4.54129    2.00000
  147     -4.53953    2.00000
  148     -4.45890    2.00000
  149     -4.29314    2.00000
  150     -4.27248    2.00000
  151     -4.26256    2.00000
  152     -4.26109    2.00000
  153     -4.23366    2.00000
  154     -4.22559    2.00000
  155     -4.08549    2.00000
  156     -4.07680    2.00000
  157     -4.06184    2.00000
  158     -4.05835    2.00000
  159     -4.05527    2.00000
  160     -4.04333    2.00000
  161     -4.03527    2.00000
  162     -4.02088    2.00000
  163     -3.99839    2.00000
  164     -3.99394    2.00000
  165     -3.52335    2.00000
  166     -3.52279    2.00000
  167     -3.51004    2.00000
  168     -3.50028    2.00000
  169     -3.47613    2.00000
  170     -3.44249    2.00000
  171     -3.03733    2.00000
  172     -3.03204    2.00000
  173     -3.02368    2.00000
  174     -3.01670    2.00000
  175     -2.99520    2.00000
  176     -2.98703    2.00000
  177     -2.97903    2.00000
  178     -2.96319    2.00000
  179     -2.95811    2.00000
  180     -2.95249    2.00000
  181     -2.93664    2.00000
  182     -2.92659    2.00000
  183     -2.72877    2.00000
  184     -2.72445    2.00000
  185     -2.70300    2.00000
  186     -2.69573    1.99999
  187     -2.67803    1.99999
  188     -2.66936    1.99999
  189     -2.19829    1.99924
  190     -2.19067    1.99918
  191     -2.18869    1.99916
  192     -2.18337    1.99911
  193     -2.15892    1.99887
  194     -2.14630    1.99872
  195     -2.14243    1.99867
  196     -2.13175    1.99851
  197     -2.09387    1.99783
  198     -2.04802    1.99657
  199     -2.04196    1.99636
  200     -2.02721    1.99578
  201     -2.02589    1.99573
  202     -2.01850    1.99540
  203     -2.01491    1.99523
  204     -1.73784    1.92646
  205     -1.69389    1.88814
  206     -1.68421    1.87747
  207     -1.67212    1.86280
  208     -1.65994    1.84639
  209     -1.64990    1.83154
  210     -1.64536    1.82440
  211     -1.63189    1.80158
  212     -1.62304    1.78520
  213     -1.61649    1.77232
  214     -1.52544    1.51596
  215     -1.50279    1.42811
  216     -1.49336    1.38882
  217     -1.47307    1.29950
  218     -1.46774    1.27502
  219     -1.46020    1.23982
  220     -1.42222    1.05462
  221     -1.41826    1.03487
  222     -1.40923    0.98975
  223     -1.39575    0.92251
  224     -1.38219    0.85559
  225     -1.37418    0.81658
  226     -1.36767    0.78534
  227     -1.25316    0.34124
  228     -1.20575    0.22704
  229     -1.20466    0.22485
  230     -1.02917    0.04287
  231     -1.02230    0.04008
  232     -1.01782    0.03836
  233     -1.00635    0.03427
  234     -1.00290    0.03313
  235     -0.99628    0.03104
  236     -0.27968    0.00002
  237      1.58922    0.00000
  238      1.59730    0.00000
  239      1.61712    0.00000
  240      1.64217    0.00000
  241      1.65709    0.00000
  242      1.79098    0.00000
  243      2.07942    0.00000
  244      2.12200    0.00000
  245      3.77635    0.00000
  246      3.97688    0.00000
  247      4.00486    0.00000
  248      4.07652    0.00000
  249      4.10120    0.00000
  250      4.13294    0.00000
  251      4.14180    0.00000
  252      4.15727    0.00000
  253      4.39379    0.00000
  254      4.82704    0.00000
  255      4.83696    0.00000
  256      4.87495    0.00000
  257      4.88045    0.00000
  258      4.89351    0.00000
  259      4.93461    0.00000
  260      5.22330    0.00000
  261      5.38972    0.00000
  262      6.13551    0.00000
  263      6.15884    0.00000
  264      6.19486    0.00000
  265      6.20579    0.00000
  266      6.24708    0.00000
  267      6.27684    0.00000
  268      6.28357    0.00000
  269      6.42145    0.00000

Fermi level: -1.41128

Gap: 0.009 eV
Transition (v -> c):
  (s=0, k=0, n=221, [0.00, 0.00, 0.00]) -> (s=0, k=0, n=222, [0.00, 0.00, 0.00])

Forces in eV/Ang:
  0 Pt    0.11618    0.04747    0.29027
  1 Pt   -0.05139   -0.01723    0.38820
  2 Pt   -0.08064    0.01815    0.48092
  3 Pt   -0.06811   -0.04068    0.39079
  4 Pt    0.12584    0.05701    0.69185
  5 Pt   -0.04997   -0.05175    0.45583
  6 Pt   -0.00831   -0.04755    0.47281
  7 Pt   -0.09472   -0.01104    0.44823
  8 Pt    0.11551    0.05193    0.34826
  9 Pt   -0.02727    0.06697    0.02142
 10 Pt    0.04290    0.00926   -0.01014
 11 Pt   -0.03446    0.12163   -0.14001
 12 Pt   -0.11593    0.13753    0.33638
 13 Pt    0.10473   -0.09823   -0.17087
 14 Pt    0.00086   -0.00058   -0.00831
 15 Pt   -0.09781   -0.03757    0.17313
 16 Pt    0.05439   -0.05276    0.02235
 17 Pt    0.06809   -0.14707    0.35410
 18 Pt   -0.07008   -0.05310   -0.49705
 19 Pt    0.01280    0.00855   -0.45456
 20 Pt    0.05942    0.09289   -0.43025
 21 Pt    0.02320    0.03025   -0.45983
 22 Pt   -0.08668   -0.07260   -0.44935
 23 Pt    0.07689    0.06008   -0.47711
 24 Pt    0.07239    0.01208   -0.40112
 25 Pt    0.10894    0.05799   -0.46055
 26 Pt   -0.23836   -0.15716   -0.62158
 27 O     0.01144    0.05921    5.49569
 28 C    -0.10559    0.01952   -5.81129

System changes: positions 

Initializing position-dependent things.

Density initialized from wave functions
                                            
                                            
                                            
                                            
                                            
                 Pt     Pt    Pt            
            Pt    PPt    PPt   Pt           
       Pt     Pt     Pt                     
             Pt     Pt     Pt               
        Pt     Pt    PPt    Pt    Pt        
                                            
                Pt     Pt     Pt            
           Pt     Pt     Pt                 
                                            
                     O                      
                                            
                     C                      
                                            
                                            
                                            
                                            
                                            

Positions:
   0 Pt     1.395867    0.805899   12.188921    ( 0.0000,  0.0000,  0.0000)
   1 Pt     4.145356    0.753739   12.224848    ( 0.0000,  0.0000,  0.0000)
   2 Pt     6.983337    0.776307   12.212243    ( 0.0000,  0.0000,  0.0000)
   3 Pt     2.717574    3.210741   12.229893    ( 0.0000,  0.0000,  0.0000)
   4 Pt     5.619829    3.237709   12.241118    ( 0.0000,  0.0000,  0.0000)
   5 Pt     8.386357    3.213315   12.203311    ( 0.0000,  0.0000,  0.0000)
   6 Pt     4.163172    5.667309   12.216337    ( 0.0000,  0.0000,  0.0000)
   7 Pt     6.975465    5.656587   12.204431    ( 0.0000,  0.0000,  0.0000)
   8 Pt     9.758349    5.632768   12.186468    ( 0.0000,  0.0000,  0.0000)
   9 Pt     0.000241    1.608140   14.278275    ( 0.0000,  0.0000,  0.0000)
  10 Pt     2.792168    1.611137   14.271467    ( 0.0000,  0.0000,  0.0000)
  11 Pt     5.567760    1.581194   14.276069    ( 0.0000,  0.0000,  0.0000)
  12 Pt     1.408542    4.024799   14.286693    ( 0.0000,  0.0000,  0.0000)
  13 Pt     4.151597    4.034502   14.280422    ( 0.0000,  0.0000,  0.0000)
  14 Pt     6.959911    4.020409   14.246503    ( 0.0000,  0.0000,  0.0000)
  15 Pt     2.777831    6.427112   14.285768    ( 0.0000,  0.0000,  0.0000)
  16 Pt     5.572339    6.432341   14.277603    ( 0.0000,  0.0000,  0.0000)
  17 Pt     8.365900    6.444839   14.286428    ( 0.0000,  0.0000,  0.0000)
  18 Pt     0.000991    0.000442   16.343810    ( 0.0000,  0.0000,  0.0000)
  19 Pt     2.776027    0.006102   16.350522    ( 0.0000,  0.0000,  0.0000)
  20 Pt     5.582832    0.024151   16.357471    ( 0.0000,  0.0000,  0.0000)
  21 Pt     1.393267    2.404156   16.349705    ( 0.0000,  0.0000,  0.0000)
  22 Pt     4.169086    2.405433   16.342340    ( 0.0000,  0.0000,  0.0000)
  23 Pt     6.974632    2.411722   16.344025    ( 0.0000,  0.0000,  0.0000)
  24 Pt     2.807046    4.822526   16.358337    ( 0.0000,  0.0000,  0.0000)
  25 Pt     5.577144    4.835252   16.345012    ( 0.0000,  0.0000,  0.0000)
  26 Pt     8.323943    4.801740   16.349689    ( 0.0000,  0.0000,  0.0000)
  27 O      5.023567    3.008616    9.513975    ( 0.0000,  0.0000,  0.0000)
  28 C      4.994201    3.006858    8.378035    ( 0.0000,  0.0000,  0.0000)

Unit cell:
           periodic     x           y           z      points  spacing
  1. axis:    yes    8.358002    0.000000    0.000000    36     0.2011
  2. axis:    yes    4.179001    7.238242    0.000000    36     0.2011
  3. axis:    yes    0.000000    0.000000   28.549520   144     0.1983

  Lengths:   8.358002   8.358002  28.549520
  Angles:   90.000000  90.000000  60.000000

Effective grid spacing dv^(1/3) = 0.2100

     iter     time        total  log10-change:
                         energy  eigst   dens
iter:   1 09:03:55  -215.995199  -0.05
iter:   2 09:03:59  -173.589736  -0.67  -1.20
iter:   3 09:04:02  -192.277001  -1.02  -1.65
iter:   4 09:04:05  -169.691354  -1.74  -1.43
iter:   5 09:04:08  -168.849215  -2.12  -1.92
iter:   6 09:04:12  -168.821967  -2.73  -2.10
iter:   7 09:04:15  -168.923111c -2.53  -2.15
iter:   8 09:04:19  -168.568551  -2.92  -2.14
iter:   9 09:04:22  -168.559473  -3.33  -2.47
iter:  10 09:04:25  -168.513647c -3.54  -2.53
iter:  11 09:04:28  -168.499967c -3.53  -2.78
iter:  12 09:04:32  -168.507889c -4.35  -2.98
iter:  13 09:04:35  -168.509777c -4.28  -3.10
iter:  14 09:04:39  -168.512761c -4.41  -3.24
iter:  15 09:04:42  -168.512470c -4.99  -3.49
iter:  16 09:04:45  -168.511671c -5.16  -3.63
iter:  17 09:04:48  -168.509785c -5.46  -3.71
iter:  18 09:04:51  -168.509299c -5.84  -3.93
iter:  19 09:04:55  -168.510171c -5.95  -3.99
iter:  20 09:04:58  -168.510607c -6.36  -4.12c
iter:  21 09:05:01  -168.510536c -6.62  -4.21c
iter:  22 09:05:04  -168.510443c -6.85  -4.19c
iter:  23 09:05:08  -168.510059c -6.79  -4.31c
iter:  24 09:05:11  -168.509994c -6.97  -4.44c
iter:  25 09:05:14  -168.510310c -6.91  -4.53c
iter:  26 09:05:17  -168.510362c -7.54c -4.82c

Converged after 26 iterations.

Dipole moment: (-6.746075, -4.002196, -0.069505) |e|*Ang

Energy contributions relative to reference atoms: (reference = -13513203.275138)

Kinetic:        +13.967874
Potential:      -47.438618
External:        +0.000000
XC:            -120.783846
Entropy (-ST):   -2.160089
Local:          -13.175728
--------------------------
Free energy:   -169.590406
Extrapolated:  -168.510362

 Band  Eigenvalues  Occupancy
    0    -54.66772    2.00000
    1    -54.63536    2.00000
    2    -54.62856    2.00000
    3    -54.59887    2.00000
    4    -54.59010    2.00000
    5    -54.58313    2.00000
    6    -54.58046    2.00000
    7    -54.57715    2.00000
    8    -54.55427    2.00000
    9    -54.21377    2.00000
   10    -54.20493    2.00000
   11    -54.19088    2.00000
   12    -54.18860    2.00000
   13    -54.17519    2.00000
   14    -54.16603    2.00000
   15    -54.15958    2.00000
   16    -54.15689    2.00000
   17    -54.15251    2.00000
   18    -54.13864    2.00000
   19    -53.97839    2.00000
   20    -53.97555    2.00000
   21    -53.96755    2.00000
   22    -53.95889    2.00000
   23    -53.95134    2.00000
   24    -53.94608    2.00000
   25    -53.89379    2.00000
   26    -53.89087    2.00000
   27    -53.61930    2.00000
   28    -53.58057    2.00000
   29    -53.56773    2.00000
   30    -53.56195    2.00000
   31    -53.55238    2.00000
   32    -53.54841    2.00000
   33    -53.54029    2.00000
   34    -53.53678    2.00000
   35    -53.53465    2.00000
   36    -53.52533    2.00000
   37    -53.52294    2.00000
   38    -53.52141    2.00000
   39    -53.51243    2.00000
   40    -53.51027    2.00000
   41    -53.50726    2.00000
   42    -53.50302    2.00000
   43    -53.50280    2.00000
   44    -53.49865    2.00000
   45    -53.49534    2.00000
   46    -53.49498    2.00000
   47    -53.49392    2.00000
   48    -53.49172    2.00000
   49    -53.49099    2.00000
   50    -53.48736    2.00000
   51    -53.48477    2.00000
   52    -53.48340    2.00000
   53    -53.47954    2.00000
   54    -53.46933    2.00000
   55    -53.46689    2.00000
   56    -53.46307    2.00000
   57    -53.45651    2.00000
   58    -53.45404    2.00000
   59    -53.44138    2.00000
   60    -53.43113    2.00000
   61    -53.42286    2.00000
   62    -53.42130    2.00000
   63    -53.41072    2.00000
   64    -53.39616    2.00000
   65    -53.33068    2.00000
   66    -53.31835    2.00000
   67    -53.31321    2.00000
   68    -53.30690    2.00000
   69    -53.29709    2.00000
   70    -53.28604    2.00000
   71    -53.28253    2.00000
   72    -53.28078    2.00000
   73    -53.27720    2.00000
   74    -53.26443    2.00000
   75    -53.26393    2.00000
   76    -53.25992    2.00000
   77    -53.24136    2.00000
   78    -53.23546    2.00000
   79    -53.21405    2.00000
   80    -53.21268    2.00000
   81    -25.41623    2.00000
   82    -10.76663    2.00000
   83    -10.60537    2.00000
   84     -8.38852    2.00000
   85     -8.37131    2.00000
   86     -8.36063    2.00000
   87     -8.34544    2.00000
   88     -8.33528    2.00000
   89     -8.32819    2.00000
   90     -8.28435    2.00000
   91     -8.26400    2.00000
   92     -8.11780    2.00000
   93     -8.09933    2.00000
   94     -7.61735    2.00000
   95     -7.60179    2.00000
   96     -7.59468    2.00000
   97     -7.58908    2.00000
   98     -7.57060    2.00000
   99     -7.52641    2.00000
  100     -7.32824    2.00000
  101     -7.31166    2.00000
  102     -7.28354    2.00000
  103     -7.26635    2.00000
  104     -7.26159    2.00000
  105     -7.24385    2.00000
  106     -7.08307    2.00000
  107     -7.05093    2.00000
  108     -7.02523    2.00000
  109     -7.01804    2.00000
  110     -6.98062    2.00000
  111     -6.95108    2.00000
  112     -6.39793    2.00000
  113     -6.37971    2.00000
  114     -6.37807    2.00000
  115     -6.32739    2.00000
  116     -6.31668    2.00000
  117     -6.27434    2.00000
  118     -6.12574    2.00000
  119     -6.11476    2.00000
  120     -6.09237    2.00000
  121     -6.08578    2.00000
  122     -5.63113    2.00000
  123     -5.62864    2.00000
  124     -5.60543    2.00000
  125     -5.59327    2.00000
  126     -5.57663    2.00000
  127     -5.54901    2.00000
  128     -5.26659    2.00000
  129     -5.14486    2.00000
  130     -5.13925    2.00000
  131     -5.06211    2.00000
  132     -5.04310    2.00000
  133     -5.00308    2.00000
  134     -4.99103    2.00000
  135     -4.98355    2.00000
  136     -4.97271    2.00000
  137     -4.80178    2.00000
  138     -4.80076    2.00000
  139     -4.74305    2.00000
  140     -4.73619    2.00000
  141     -4.72197    2.00000
  142     -4.69631    2.00000
  143     -4.69100    2.00000
  144     -4.66672    2.00000
  145     -4.64482    2.00000
  146     -4.63341    2.00000
  147     -4.46421    2.00000
  148     -4.40554    2.00000
  149     -4.22929    2.00000
  150     -4.20044    2.00000
  151     -4.19286    2.00000
  152     -4.18740    2.00000
  153     -4.14096    2.00000
  154     -4.13516    2.00000
  155     -4.07837    2.00000
  156     -4.06719    2.00000
  157     -4.04693    2.00000
  158     -4.03026    2.00000
  159     -4.02409    2.00000
  160     -4.00567    2.00000
  161     -3.99599    2.00000
  162     -3.98518    2.00000
  163     -3.97475    2.00000
  164     -3.97008    2.00000
  165     -3.54421    2.00000
  166     -3.53409    2.00000
  167     -3.52569    2.00000
  168     -3.50971    2.00000
  169     -3.46847    2.00000
  170     -3.43109    2.00000
  171     -3.18210    2.00000
  172     -3.14871    2.00000
  173     -3.13788    2.00000
  174     -3.12827    2.00000
  175     -3.10271    2.00000
  176     -3.09319    2.00000
  177     -3.03599    2.00000
  178     -3.01891    2.00000
  179     -3.01167    2.00000
  180     -2.99647    2.00000
  181     -2.95991    2.00000
  182     -2.93721    2.00000
  183     -2.65039    2.00000
  184     -2.63906    2.00000
  185     -2.51735    1.99999
  186     -2.51488    1.99999
  187     -2.48144    1.99999
  188     -2.47488    1.99999
  189     -2.21865    1.99984
  190     -2.21421    1.99984
  191     -2.17344    1.99975
  192     -2.10907    1.99953
  193     -2.09199    1.99944
  194     -2.07801    1.99936
  195     -2.06537    1.99927
  196     -2.06357    1.99926
  197     -2.05790    1.99922
  198     -2.04728    1.99913
  199     -2.03725    1.99904
  200     -2.01884    1.99885
  201     -2.00250    1.99864
  202     -1.97504    1.99821
  203     -1.94143    1.99750
  204     -1.74880    1.98295
  205     -1.66886    1.96247
  206     -1.65510    1.95705
  207     -1.62053    1.93985
  208     -1.56048    1.89299
  209     -1.55228    1.88438
  210     -1.53106    1.85897
  211     -1.52831    1.85533
  212     -1.51373    1.83450
  213     -1.50868    1.82667
  214     -1.43935    1.68094
  215     -1.40578    1.58037
  216     -1.39672    1.54954
  217     -1.35906    1.40483
  218     -1.34782    1.35679
  219     -1.33520    1.30053
  220     -1.29420    1.10475
  221     -1.28676    1.06781
  222     -1.24492    0.85967
  223     -1.23173    0.79566
  224     -1.20997    0.69409
  225     -1.19460    0.62615
  226     -1.17600    0.54904
  227     -1.05989    0.21189
  228     -0.96979    0.09184
  229     -0.96811    0.09038
  230     -0.75880    0.01160
  231     -0.74377    0.00999
  232     -0.74229    0.00985
  233     -0.72054    0.00793
  234     -0.71202    0.00728
  235     -0.70868    0.00705
  236     -0.08469    0.00001
  237      1.65798    0.00000
  238      1.67257    0.00000
  239      1.93243    0.00000
  240      1.94013    0.00000
  241      1.99772    0.00000
  242      2.00892    0.00000
  243      2.01492    0.00000
  244      2.15762    0.00000
  245      3.76693    0.00000
  246      4.05585    0.00000
  247      4.08110    0.00000
  248      4.09794    0.00000
  249      4.13375    0.00000
  250      4.19657    0.00000
  251      4.20602    0.00000
  252      4.22422    0.00000
  253      4.38410    0.00000
  254      4.91222    0.00000
  255      5.03718    0.00000
  256      5.04501    0.00000
  257      5.08557    0.00000
  258      5.09727    0.00000
  259      5.11323    0.00000
  260      5.35689    0.00000
  261      5.45892    0.00000
  262      6.25643    0.00000
  263      6.26639    0.00000
  264      6.29846    0.00000
  265      6.33294    0.00000
  266      6.33753    0.00000
  267      6.36777    0.00000
  268      6.37864    0.00000
  269      6.46592    0.00000

Fermi level: -1.27318

Gap: 0.042 eV
Transition (v -> c):
  (s=0, k=0, n=221, [0.00, 0.00, 0.00]) -> (s=0, k=0, n=222, [0.00, 0.00, 0.00])

Forces in eV/Ang:
  0 Pt    0.07600    0.02368   -0.58280
  1 Pt    0.12615    0.28383   -0.71706
  2 Pt   -0.19058    0.18520   -0.43869
  3 Pt    0.32305   -0.03083   -0.74439
  4 Pt   -0.23448   -0.10259   -0.50357
  5 Pt   -0.18974   -0.02076   -0.42086
  6 Pt    0.09198   -0.26236   -0.48561
  7 Pt   -0.13394   -0.14518   -0.45078
  8 Pt    0.03347    0.01867   -0.47169
  9 Pt    0.01569    0.05455   -0.04328
 10 Pt   -0.02284   -0.03380    0.05816
 11 Pt   -0.05046    0.34059   -0.26295
 12 Pt   -0.34596    0.28662    0.56645
 13 Pt    0.30583   -0.24591   -0.34986
 14 Pt    0.14352    0.06733    0.29687
 15 Pt   -0.14061   -0.02844    0.26176
 16 Pt    0.06865    0.00592   -0.02156
 17 Pt    0.10916   -0.39554    0.59317
 18 Pt   -0.06072   -0.05345    0.43054
 19 Pt    0.06045    0.00215    0.46858
 20 Pt    0.00660   -0.04518    0.51437
 21 Pt    0.04866    0.05645    0.45849
 22 Pt    0.01063   -0.00722    0.50799
 23 Pt   -0.03865    0.11529    0.42960
 24 Pt   -0.05989    0.04337    0.55964
 25 Pt    0.09409   -0.06981    0.45594
 26 Pt   -0.16053   -0.09198    0.21231
 27 O    -0.03988    0.01761   -0.08774
 28 C     0.00289    0.00284   -0.13511

System changes: positions 

Initializing position-dependent things.

Density initialized from wave functions
                                            
                                            
                                            
                                            
                                            
                 Pt     Pt    Pt            
            Pt    PPt    PPt   Pt           
       Pt     Pt     Pt                     
             Pt     Pt     Pt               
        Pt     Pt    PPt    Pt    Pt        
                                            
                Pt     Pt     Pt            
           Pt     Pt     Pt                 
                                            
                     O                      
                                            
                     C                      
                                            
                                            
                                            
                                            
                                            

Positions:
   0 Pt     1.395986    0.805805   12.142168    ( 0.0000,  0.0000,  0.0000)
   1 Pt     4.152243    0.764834   12.170753    ( 0.0000,  0.0000,  0.0000)
   2 Pt     6.978604    0.782671   12.162574    ( 0.0000,  0.0000,  0.0000)
   3 Pt     2.732112    3.211588   12.174697    ( 0.0000,  0.0000,  0.0000)
   4 Pt     5.609613    3.233277   12.185899    ( 0.0000,  0.0000,  0.0000)
   5 Pt     8.379878    3.213787   12.155344    ( 0.0000,  0.0000,  0.0000)
   6 Pt     4.166672    5.658643   12.165577    ( 0.0000,  0.0000,  0.0000)
   7 Pt     6.972556    5.650733   12.156030    ( 0.0000,  0.0000,  0.0000)
   8 Pt     9.757347    5.632395   12.141032    ( 0.0000,  0.0000,  0.0000)
   9 Pt     0.000316    1.608646   14.277327    ( 0.0000,  0.0000,  0.0000)
  10 Pt     2.790916    1.610410   14.272506    ( 0.0000,  0.0000,  0.0000)
  11 Pt     5.568099    1.588697   14.273742    ( 0.0000,  0.0000,  0.0000)
  12 Pt     1.403064    4.026462   14.289135    ( 0.0000,  0.0000,  0.0000)
  13 Pt     4.158840    4.030216   14.276640    ( 0.0000,  0.0000,  0.0000)
  14 Pt     6.961932    4.021085   14.253800    ( 0.0000,  0.0000,  0.0000)
  15 Pt     2.778137    6.428088   14.285939    ( 0.0000,  0.0000,  0.0000)
  16 Pt     5.572831    6.432666   14.276944    ( 0.0000,  0.0000,  0.0000)
  17 Pt     8.365388    6.439789   14.289132    ( 0.0000,  0.0000,  0.0000)
  18 Pt     0.000325   -0.000067   16.392267    ( 0.0000,  0.0000,  0.0000)
  19 Pt     2.778255    0.005049   16.398110    ( 0.0000,  0.0000,  0.0000)
  20 Pt     5.580995    0.019577   16.404206    ( 0.0000,  0.0000,  0.0000)
  21 Pt     1.393607    2.406114   16.397356    ( 0.0000,  0.0000,  0.0000)
  22 Pt     4.170891    2.406644   16.391676    ( 0.0000,  0.0000,  0.0000)
  23 Pt     6.972655    2.412822   16.392441    ( 0.0000,  0.0000,  0.0000)
  24 Pt     2.802897    4.823391   16.405282    ( 0.0000,  0.0000,  0.0000)
  25 Pt     5.577006    4.833003   16.393466    ( 0.0000,  0.0000,  0.0000)
  26 Pt     8.328606    4.805152   16.395370    ( 0.0000,  0.0000,  0.0000)
  27 O      5.019109    3.007268    9.524146    ( 0.0000,  0.0000,  0.0000)
  28 C      4.995214    3.005686    8.385044    ( 0.0000,  0.0000,  0.0000)

Unit cell:
           periodic     x           y           z      points  spacing
  1. axis:    yes    8.358002    0.000000    0.000000    36     0.2011
  2. axis:    yes    4.179001    7.238242    0.000000    36     0.2011
  3. axis:    yes    0.000000    0.000000   28.549520   144     0.1983

  Lengths:   8.358002   8.358002  28.549520
  Angles:   90.000000  90.000000  60.000000

Effective grid spacing dv^(1/3) = 0.2100

     iter     time        total  log10-change:
                         energy  eigst   dens
iter:   1 09:05:29  -176.939597  -0.59
iter:   2 09:05:32  -170.585944  -1.64  -1.64
iter:   3 09:05:35  -176.806845  -1.36  -1.83
iter:   4 09:05:38  -169.785778  -1.70  -1.58
iter:   5 09:05:41  -168.872276  -2.63  -2.14
iter:   6 09:05:44  -168.792145  -3.02  -2.36
iter:   7 09:05:47  -168.675455c -2.97  -2.37
iter:   8 09:05:51  -168.622151c -3.06  -2.65
iter:   9 09:05:54  -168.633663c -4.12  -2.61
iter:  10 09:05:57  -168.632692c -4.17  -2.73
iter:  11 09:06:01  -168.626979c -3.72  -2.86
iter:  12 09:06:04  -168.623607c -4.24  -3.21
iter:  13 09:06:07  -168.624285c -5.07  -3.33
iter:  14 09:06:10  -168.625467c -4.90  -3.34
iter:  15 09:06:13  -168.621403c -4.76  -3.43
iter:  16 09:06:16  -168.621600c -5.24  -3.78
iter:  17 09:06:19  -168.621734c -5.86  -3.92
iter:  18 09:06:22  -168.621725c -5.93  -3.72
iter:  19 09:06:25  -168.621591c -6.26  -4.09c
iter:  20 09:06:28  -168.621650c -6.32  -4.19c
iter:  21 09:06:31  -168.621859c -6.81  -4.28c
iter:  22 09:06:34  -168.622126c -7.04  -4.31c
iter:  23 09:06:37  -168.622252c -7.32  -4.44c
iter:  24 09:06:40  -168.622196c -7.15  -4.45c
iter:  25 09:06:43  -168.622254c -6.79  -4.22c
iter:  26 09:06:46  -168.622133c -7.74c -4.59c

Converged after 26 iterations.

Dipole moment: (-5.981395, -3.532608, -0.083679) |e|*Ang

Energy contributions relative to reference atoms: (reference = -13513203.275138)

Kinetic:        -51.586993
Potential:       +8.394107
External:        +0.000000
XC:            -111.280626
Entropy (-ST):   -2.390062
Local:          -12.953590
--------------------------
Free energy:   -169.817164
Extrapolated:  -168.622133

 Band  Eigenvalues  Occupancy
    0    -54.57963    2.00000
    1    -54.55019    2.00000
    2    -54.53593    2.00000
    3    -54.51418    2.00000
    4    -54.50732    2.00000
    5    -54.50336    2.00000
    6    -54.49669    2.00000
    7    -54.49547    2.00000
    8    -54.47471    2.00000
    9    -54.13736    2.00000
   10    -54.13420    2.00000
   11    -54.12616    2.00000
   12    -54.11934    2.00000
   13    -54.11117    2.00000
   14    -54.10335    2.00000
   15    -54.09832    2.00000
   16    -54.09462    2.00000
   17    -54.08835    2.00000
   18    -54.07945    2.00000
   19    -53.91815    2.00000
   20    -53.91483    2.00000
   21    -53.90695    2.00000
   22    -53.90121    2.00000
   23    -53.89532    2.00000
   24    -53.89043    2.00000
   25    -53.83725    2.00000
   26    -53.83481    2.00000
   27    -53.63400    2.00000
   28    -53.57233    2.00000
   29    -53.56499    2.00000
   30    -53.55903    2.00000
   31    -53.54370    2.00000
   32    -53.54056    2.00000
   33    -53.53816    2.00000
   34    -53.53315    2.00000
   35    -53.52963    2.00000
   36    -53.52597    2.00000
   37    -53.52389    2.00000
   38    -53.51881    2.00000
   39    -53.51514    2.00000
   40    -53.51490    2.00000
   41    -53.51262    2.00000
   42    -53.50960    2.00000
   43    -53.50916    2.00000
   44    -53.50647    2.00000
   45    -53.50578    2.00000
   46    -53.49995    2.00000
   47    -53.49838    2.00000
   48    -53.49785    2.00000
   49    -53.49234    2.00000
   50    -53.49190    2.00000
   51    -53.49022    2.00000
   52    -53.48858    2.00000
   53    -53.48809    2.00000
   54    -53.48518    2.00000
   55    -53.48141    2.00000
   56    -53.48101    2.00000
   57    -53.47967    2.00000
   58    -53.47844    2.00000
   59    -53.47077    2.00000
   60    -53.46650    2.00000
   61    -53.46071    2.00000
   62    -53.45015    2.00000
   63    -53.44738    2.00000
   64    -53.43934    2.00000
   65    -53.35137    2.00000
   66    -53.34068    2.00000
   67    -53.33925    2.00000
   68    -53.32618    2.00000
   69    -53.31914    2.00000
   70    -53.31626    2.00000
   71    -53.31599    2.00000
   72    -53.31208    2.00000
   73    -53.30756    2.00000
   74    -53.30062    2.00000
   75    -53.29939    2.00000
   76    -53.29785    2.00000
   77    -53.26486    2.00000
   78    -53.26165    2.00000
   79    -53.25043    2.00000
   80    -53.24738    2.00000
   81    -25.42656    2.00000
   82    -10.80886    2.00000
   83    -10.52329    2.00000
   84     -8.35766    2.00000
   85     -8.21326    2.00000
   86     -8.19574    2.00000
   87     -8.19147    2.00000
   88     -8.18392    2.00000
   89     -8.17721    2.00000
   90     -8.15716    2.00000
   91     -8.14498    2.00000
   92     -8.13630    2.00000
   93     -8.11367    2.00000
   94     -7.45628    2.00000
   95     -7.44908    2.00000
   96     -7.44513    2.00000
   97     -7.43834    2.00000
   98     -7.42378    2.00000
   99     -7.39244    2.00000
  100     -7.15155    2.00000
  101     -7.13982    2.00000
  102     -7.12429    2.00000
  103     -7.10856    2.00000
  104     -7.10207    2.00000
  105     -7.08638    2.00000
  106     -6.89911    2.00000
  107     -6.85048    2.00000
  108     -6.84644    2.00000
  109     -6.82735    2.00000
  110     -6.80039    2.00000
  111     -6.77878    2.00000
  112     -6.34947    2.00000
  113     -6.33198    2.00000
  114     -6.33033    2.00000
  115     -6.29202    2.00000
  116     -6.28022    2.00000
  117     -6.24911    2.00000
  118     -5.95503    2.00000
  119     -5.94755    2.00000
  120     -5.93366    2.00000
  121     -5.92765    2.00000
  122     -5.49708    2.00000
  123     -5.49510    2.00000
  124     -5.48154    2.00000
  125     -5.47262    2.00000
  126     -5.46887    2.00000
  127     -5.43662    2.00000
  128     -5.29995    2.00000
  129     -4.95600    2.00000
  130     -4.95402    2.00000
  131     -4.82073    2.00000
  132     -4.80819    2.00000
  133     -4.77897    2.00000
  134     -4.77254    2.00000
  135     -4.76193    2.00000
  136     -4.75047    2.00000
  137     -4.74815    2.00000
  138     -4.72691    2.00000
  139     -4.71472    2.00000
  140     -4.70278    2.00000
  141     -4.69664    2.00000
  142     -4.67609    2.00000
  143     -4.66053    2.00000
  144     -4.64722    2.00000
  145     -4.63467    2.00000
  146     -4.62860    2.00000
  147     -4.57899    2.00000
  148     -4.42075    2.00000
  149     -4.25197    2.00000
  150     -4.22817    2.00000
  151     -4.22028    2.00000
  152     -4.21693    2.00000
  153     -4.18489    2.00000
  154     -4.18352    2.00000
  155     -4.06018    2.00000
  156     -4.05731    2.00000
  157     -4.03939    2.00000
  158     -4.02719    2.00000
  159     -4.01870    2.00000
  160     -4.01521    2.00000
  161     -4.00367    2.00000
  162     -3.98470    2.00000
  163     -3.97143    2.00000
  164     -3.96331    2.00000
  165     -3.51718    2.00000
  166     -3.51100    2.00000
  167     -3.50134    2.00000
  168     -3.48836    2.00000
  169     -3.45457    2.00000
  170     -3.41730    2.00000
  171     -3.05227    2.00000
  172     -3.03801    2.00000
  173     -3.03635    2.00000
  174     -3.02891    2.00000
  175     -3.02163    2.00000
  176     -3.01336    2.00000
  177     -3.00630    2.00000
  178     -2.99331    2.00000
  179     -2.97768    2.00000
  180     -2.97386    2.00000
  181     -2.95836    2.00000
  182     -2.93815    2.00000
  183     -2.68040    2.00000
  184     -2.67411    2.00000
  185     -2.59958    1.99999
  186     -2.59245    1.99999
  187     -2.57007    1.99999
  188     -2.56149    1.99999
  189     -2.17585    1.99958
  190     -2.17338    1.99957
  191     -2.12172    1.99927
  192     -2.11587    1.99923
  193     -2.10522    1.99914
  194     -2.10263    1.99912
  195     -2.07739    1.99887
  196     -2.06817    1.99876
  197     -2.05950    1.99865
  198     -2.04638    1.99846
  199     -2.04221    1.99839
  200     -2.02581    1.99810
  201     -2.02218    1.99804
  202     -2.01225    1.99783
  203     -1.97052    1.99671
  204     -1.72614    1.96273
  205     -1.66374    1.93155
  206     -1.65109    1.92268
  207     -1.62636    1.90204
  208     -1.58484    1.85528
  209     -1.58145    1.85066
  210     -1.57598    1.84293
  211     -1.56864    1.83197
  212     -1.56058    1.81914
  213     -1.55605    1.81155
  214     -1.46903    1.60211
  215     -1.44036    1.50282
  216     -1.43380    1.47794
  217     -1.40167    1.34490
  218     -1.39578    1.31870
  219     -1.38332    1.26165
  220     -1.34361    1.06921
  221     -1.33824    1.04245
  222     -1.31437    0.92327
  223     -1.30021    0.85338
  224     -1.28817    0.79507
  225     -1.27479    0.73197
  226     -1.25987    0.66421
  227     -1.14558    0.27373
  228     -1.08283    0.15610
  229     -1.08180    0.15462
  230     -0.88912    0.02411
  231     -0.87731    0.02145
  232     -0.87591    0.02116
  233     -0.85821    0.01776
  234     -0.85476    0.01716
  235     -0.84776    0.01601
  236     -0.17670    0.00002
  237      1.56841    0.00000
  238      1.59202    0.00000
  239      1.78162    0.00000
  240      1.79431    0.00000
  241      1.83609    0.00000
  242      1.85578    0.00000
  243      1.86990    0.00000
  244      2.00907    0.00000
  245      3.75970    0.00000
  246      4.02760    0.00000
  247      4.06829    0.00000
  248      4.08158    0.00000
  249      4.13318    0.00000
  250      4.17481    0.00000
  251      4.18427    0.00000
  252      4.20281    0.00000
  253      4.38418    0.00000
  254      4.90852    0.00000
  255      4.94067    0.00000
  256      4.94863    0.00000
  257      4.99020    0.00000
  258      4.99823    0.00000
  259      5.01037    0.00000
  260      5.32126    0.00000
  261      5.40454    0.00000
  262      6.20435    0.00000
  263      6.22774    0.00000
  264      6.28219    0.00000
  265      6.28853    0.00000
  266      6.29928    0.00000
  267      6.31368    0.00000
  268      6.33191    0.00000
  269      6.43463    0.00000

Fermi level: -1.32974

Gap: 0.024 eV
Transition (v -> c):
  (s=0, k=0, n=221, [0.00, 0.00, 0.00]) -> (s=0, k=0, n=222, [0.00, 0.00, 0.00])

Forces in eV/Ang:
  0 Pt    0.11362    0.04464   -0.08793
  1 Pt   -0.00214    0.04779   -0.06206
  2 Pt   -0.12305    0.05826    0.04167
  3 Pt    0.02025   -0.02796   -0.05808
  4 Pt    0.01609    0.01139    0.15472
  5 Pt   -0.08511   -0.02897    0.03693
  6 Pt    0.00784   -0.11006    0.02885
  7 Pt   -0.09381   -0.05320    0.02392
  8 Pt    0.09177    0.04074    0.00561
  9 Pt    0.00121    0.04251   -0.01873
 10 Pt    0.00703   -0.00828   -0.00447
 11 Pt   -0.04084    0.15967   -0.17019
 12 Pt   -0.14032    0.14914    0.34958
 13 Pt    0.13219   -0.12550   -0.21386
 14 Pt    0.03068    0.01312    0.04563
 15 Pt   -0.09025   -0.03050    0.17346
 16 Pt    0.04563   -0.01410   -0.01013
 17 Pt    0.07128   -0.17409    0.36998
 18 Pt   -0.07243   -0.06075   -0.03362
 19 Pt    0.01830    0.03496   -0.00286
 20 Pt    0.05700    0.07059   -0.02531
 21 Pt    0.05542    0.01910   -0.00975
 22 Pt   -0.06014   -0.05010    0.01982
 23 Pt    0.01744    0.06317   -0.00929
 24 Pt    0.06230    0.02011   -0.00277
 25 Pt    0.07725    0.00763    0.00458
[...]
      XC: 0.00 MiB
      Poisson: 0.00 MiB
      vbar: 0.44 MiB
    Wavefunctions: 45.67 MiB
      Arrays psit_nG: 19.36 MiB
      Eigensolver: 25.28 MiB
      Projections: 0.05 MiB
      Projectors: 0.98 MiB

Total number of cores used: 20
Domain decomposition: 2 x 2 x 5

Number of atoms: 29
Number of atomic orbitals: 332
Number of bands in calculation: 270
Number of valence electrons: 442
Bands to converge: occupied

... initialized

Initializing position-dependent things.

Density initialized from atomic densities
Creating initial wave functions:
  270 bands from LCAO basis set

                                             
                                             
                                             
                                             
                                             
                               Pt            
                         Pt                  
            Pt    PPt    Ptt   Pt            
             PPt     Pt                      
       Pt                  Pt                
        Pt           Pt            Pt        
               Pt          Pt                
                              Pt             
                Pt    PtPt                   
            Pt    Pt                         
                                             
                                             
                      O                      
                     C                       
                                             
                                             
                                             
                                             
                                             
                                             

Positions:
   0 Pt     1.659575    0.859671   11.589223    ( 0.0000,  0.0000,  0.0000)
   1 Pt     4.109491    0.148762   12.523354    ( 0.0000,  0.0000,  0.0000)
   2 Pt     6.563379    1.361603   12.256148    ( 0.0000,  0.0000,  0.0000)
   3 Pt     2.775704    3.238183   11.457694    ( 0.0000,  0.0000,  0.0000)
   4 Pt     5.287017    3.351405   11.287636    ( 0.0000,  0.0000,  0.0000)
   5 Pt     8.613714    3.076916   12.181775    ( 0.0000,  0.0000,  0.0000)
   6 Pt     4.068846    6.436048   12.562653    ( 0.0000,  0.0000,  0.0000)
   7 Pt     6.564206    5.476439   12.008899    ( 0.0000,  0.0000,  0.0000)
   8 Pt     9.953667    5.414266   12.374366    ( 0.0000,  0.0000,  0.0000)
   9 Pt    -0.081825    1.545178   14.519755    ( 0.0000,  0.0000,  0.0000)
  10 Pt     2.615055    1.990096   13.829456    ( 0.0000,  0.0000,  0.0000)
  11 Pt     5.143205    1.616258   14.483447    ( 0.0000,  0.0000,  0.0000)
  12 Pt     1.255521    3.939874   14.836828    ( 0.0000,  0.0000,  0.0000)
  13 Pt     4.412572    4.032409   13.590763    ( 0.0000,  0.0000,  0.0000)
  14 Pt     6.973878    3.907053   14.043411    ( 0.0000,  0.0000,  0.0000)
  15 Pt     2.481176    6.612448   14.606641    ( 0.0000,  0.0000,  0.0000)
  16 Pt     5.861409    6.888845   14.503833    ( 0.0000,  0.0000,  0.0000)
  17 Pt     8.255368    6.115786   15.011271    ( 0.0000,  0.0000,  0.0000)
  18 Pt     0.017462   -0.252618   16.659295    ( 0.0000,  0.0000,  0.0000)
  19 Pt     2.759726    0.104022   17.032401    ( 0.0000,  0.0000,  0.0000)
  20 Pt     5.673420   -0.012487   16.941993    ( 0.0000,  0.0000,  0.0000)
  21 Pt     1.369860    2.223878   16.824359    ( 0.0000,  0.0000,  0.0000)
  22 Pt     4.109240    2.180574   16.790892    ( 0.0000,  0.0000,  0.0000)
  23 Pt     6.634775    2.599976   16.413645    ( 0.0000,  0.0000,  0.0000)
  24 Pt     3.473271    4.533984   15.999320    ( 0.0000,  0.0000,  0.0000)
  25 Pt     5.993142    5.043561   16.439958    ( 0.0000,  0.0000,  0.0000)
  26 Pt     8.539868    4.493208   17.111239    ( 0.0000,  0.0000,  0.0000)
  27 O      5.129458    2.828017    8.292995    ( 0.0000,  0.0000,  0.0000)
  28 C      4.993888    3.003843    7.178843    ( 0.0000,  0.0000,  0.0000)

Unit cell:
           periodic     x           y           z      points  spacing
  1. axis:    yes    8.358002    0.000000    0.000000    36     0.2011
  2. axis:    yes    4.179001    7.238242    0.000000    36     0.2011
  3. axis:    yes    0.000000    0.000000   28.549520   144     0.1983

  Lengths:   8.358002   8.358002  28.549520
  Angles:   90.000000  90.000000  60.000000

Effective grid spacing dv^(1/3) = 0.2100

     iter     time        total  log10-change:
                         energy  eigst   dens
iter:   1 11:58:20  -184.998194
iter:   2 11:58:23  -183.914327  -0.50  -1.40
iter:   3 11:58:26  -181.605900  -1.25  -1.42
iter:   4 11:58:29  -183.130879  -1.33  -1.45
iter:   5 11:58:33  -174.866377  -1.13  -1.44
iter:   6 11:58:36  -174.050378  -1.66  -1.81
iter:   7 11:58:39  -173.687700  -2.39  -1.98
iter:   8 11:58:43  -173.597774  -2.44  -2.08
iter:   9 11:58:47  -173.542777c -2.77  -2.24
iter:  10 11:58:50  -173.553785c -2.99  -2.32
iter:  11 11:58:53  -173.463971c -2.85  -2.32
iter:  12 11:58:56  -173.442018c -2.86  -2.49
iter:  13 11:59:00  -173.425657c -3.12  -2.67
iter:  14 11:59:03  -173.425312c -3.56  -2.97
iter:  15 11:59:07  -173.425075c -3.88  -3.07
iter:  16 11:59:10  -173.432763c -4.14  -3.17
iter:  17 11:59:13  -173.425719c -4.48  -3.17
iter:  18 11:59:16  -173.426674c -4.75  -3.38
iter:  19 11:59:19  -173.426741c -4.80  -3.53
iter:  20 11:59:22  -173.426818c -5.26  -3.69
iter:  21 11:59:25  -173.426914c -5.54  -3.80
iter:  22 11:59:28  -173.427162c -5.60  -3.94
iter:  23 11:59:32  -173.426337c -6.13  -4.14c
iter:  24 11:59:35  -173.426974c -6.46  -4.02c
iter:  25 11:59:38  -173.426904c -6.87  -4.30c
iter:  26 11:59:41  -173.426888c -6.90  -4.42c
iter:  27 11:59:45  -173.426901c -7.23  -4.62c
iter:  28 11:59:48  -173.426867c -7.42c -4.74c

Converged after 28 iterations.

Dipole moment: (-17.180025, 15.762138, -0.064638) |e|*Ang

Energy contributions relative to reference atoms: (reference = -13513203.275138)

Kinetic:       -190.360617
Potential:     +122.075401
External:        +0.000000
XC:             -91.780794
Entropy (-ST):   -1.317597
Local:          -12.702059
--------------------------
Free energy:   -174.085665
Extrapolated:  -173.426867

 Band  Eigenvalues  Occupancy
    0    -54.51092    2.00000
    1    -54.36338    2.00000
    2    -54.34323    2.00000
    3    -54.31075    2.00000
    4    -54.29413    2.00000
    5    -54.27600    2.00000
    6    -54.25016    2.00000
    7    -54.21599    2.00000
    8    -54.19682    2.00000
    9    -54.17707    2.00000
   10    -54.15251    2.00000
   11    -54.14521    2.00000
   12    -54.13289    2.00000
   13    -54.12890    2.00000
   14    -54.10355    2.00000
   15    -54.09816    2.00000
   16    -54.08782    2.00000
   17    -54.05624    2.00000
   18    -54.02910    2.00000
   19    -54.01088    2.00000
   20    -54.00333    2.00000
   21    -53.99166    2.00000
   22    -53.98352    2.00000
   23    -53.97185    2.00000
   24    -53.94869    2.00000
   25    -53.94362    2.00000
   26    -53.92523    2.00000
   27    -53.90949    2.00000
   28    -53.89688    2.00000
   29    -53.88426    2.00000
   30    -53.86286    2.00000
   31    -53.85814    2.00000
   32    -53.83315    2.00000
   33    -53.83031    2.00000
   34    -53.82288    2.00000
   35    -53.81492    2.00000
   36    -53.79656    2.00000
   37    -53.78137    2.00000
   38    -53.77214    2.00000
   39    -53.75884    2.00000
   40    -53.74416    2.00000
   41    -53.73704    2.00000
   42    -53.72516    2.00000
   43    -53.71749    2.00000
   44    -53.71044    2.00000
   45    -53.70642    2.00000
   46    -53.69225    2.00000
   47    -53.68721    2.00000
   48    -53.68282    2.00000
   49    -53.67186    2.00000
   50    -53.65133    2.00000
   51    -53.64421    2.00000
   52    -53.62601    2.00000
   53    -53.61132    2.00000
   54    -53.60846    2.00000
   55    -53.59366    2.00000
   56    -53.58385    2.00000
   57    -53.55848    2.00000
   58    -53.54736    2.00000
   59    -53.51783    2.00000
   60    -53.49597    2.00000
   61    -53.48719    2.00000
   62    -53.46301    2.00000
   63    -53.44510    2.00000
   64    -53.42766    2.00000
   65    -53.41591    2.00000
   66    -53.41323    2.00000
   67    -53.40150    2.00000
   68    -53.36294    2.00000
   69    -53.34590    2.00000
   70    -53.31924    2.00000
   71    -53.30754    2.00000
   72    -53.30162    2.00000
   73    -53.29752    2.00000
   74    -53.28739    2.00000
   75    -53.27604    2.00000
   76    -53.23823    2.00000
   77    -53.22010    2.00000
   78    -53.13619    2.00000
   79    -53.11769    2.00000
   80    -53.05213    2.00000
   81    -25.24371    2.00000
   82    -10.34954    2.00000
   83    -10.05249    2.00000
   84     -8.42293    2.00000
   85     -7.94111    2.00000
   86     -7.91774    2.00000
   87     -7.91255    2.00000
   88     -7.85061    2.00000
   89     -7.76694    2.00000
   90     -7.67062    2.00000
   91     -7.57254    2.00000
   92     -7.55449    2.00000
   93     -7.47892    2.00000
   94     -7.35679    2.00000
   95     -7.21508    2.00000
   96     -7.15619    2.00000
   97     -7.08384    2.00000
   98     -7.04243    2.00000
   99     -6.95180    2.00000
  100     -6.87879    2.00000
  101     -6.82212    2.00000
  102     -6.78548    2.00000
  103     -6.74696    2.00000
  104     -6.67745    2.00000
  105     -6.62318    2.00000
  106     -6.52731    2.00000
  107     -6.48673    2.00000
  108     -6.43659    2.00000
  109     -6.39053    2.00000
  110     -6.31619    2.00000
  111     -6.30530    2.00000
  112     -6.24930    2.00000
  113     -6.21034    2.00000
  114     -6.13474    2.00000
  115     -6.07011    2.00000
  116     -6.01406    2.00000
  117     -5.92017    2.00000
  118     -5.86749    2.00000
  119     -5.84169    2.00000
  120     -5.77899    2.00000
  121     -5.74985    2.00000
  122     -5.68479    2.00000
  123     -5.61990    2.00000
  124     -5.58932    2.00000
  125     -5.51399    2.00000
  126     -5.49940    2.00000
  127     -5.43879    2.00000
  128     -5.43333    2.00000
  129     -5.32445    2.00000
  130     -5.27076    2.00000
  131     -5.22191    2.00000
  132     -5.17634    2.00000
  133     -5.11667    2.00000
  134     -5.07352    2.00000
  135     -5.07048    2.00000
  136     -4.99383    2.00000
  137     -4.94635    2.00000
  138     -4.91123    2.00000
  139     -4.86975    2.00000
  140     -4.84168    2.00000
  141     -4.80925    2.00000
  142     -4.79094    2.00000
  143     -4.70920    2.00000
  144     -4.64112    2.00000
  145     -4.57076    2.00000
  146     -4.48683    2.00000
  147     -4.45897    2.00000
  148     -4.42952    2.00000
  149     -4.41675    2.00000
  150     -4.31716    2.00000
  151     -4.30280    2.00000
  152     -4.22280    2.00000
  153     -4.20596    2.00000
  154     -4.18178    2.00000
  155     -4.13251    2.00000
  156     -4.09012    2.00000
  157     -4.04944    2.00000
  158     -3.96110    2.00000
  159     -3.94956    2.00000
  160     -3.89021    2.00000
  161     -3.85381    2.00000
  162     -3.78779    2.00000
  163     -3.77000    2.00000
  164     -3.71712    2.00000
  165     -3.68499    2.00000
  166     -3.62185    2.00000
  167     -3.57223    2.00000
  168     -3.52286    2.00000
  169     -3.42349    2.00000
  170     -3.40273    2.00000
  171     -3.39675    2.00000
  172     -3.38243    2.00000
  173     -3.33000    2.00000
  174     -3.27816    2.00000
  175     -3.21070    2.00000
  176     -3.16159    2.00000
  177     -3.10308    2.00000
  178     -3.04578    2.00000
  179     -3.01301    2.00000
  180     -2.96554    2.00000
  181     -2.95898    2.00000
  182     -2.86020    2.00000
  183     -2.83938    2.00000
  184     -2.79926    2.00000
  185     -2.76064    2.00000
  186     -2.69504    2.00000
  187     -2.66748    2.00000
  188     -2.64399    2.00000
  189     -2.63096    2.00000
  190     -2.59140    1.99999
  191     -2.55598    1.99999
  192     -2.49336    1.99998
  193     -2.43309    1.99997
  194     -2.42395    1.99996
  195     -2.40032    1.99995
  196     -2.35223    1.99992
  197     -2.30973    1.99988
  198     -2.25056    1.99979
  199     -2.21995    1.99971
  200     -2.17777    1.99956
  201     -2.13562    1.99933
  202     -2.11644    1.99918
  203     -2.05550    1.99850
  204     -2.04900    1.99840
  205     -1.96644    1.99635
  206     -1.96135    1.99616
  207     -1.86668    1.99012
  208     -1.85254    1.98863
  209     -1.82330    1.98480
  210     -1.78140    1.97697
  211     -1.76257    1.97227
  212     -1.74797    1.96798
  213     -1.67483    1.93459
  214     -1.62772    1.89726
  215     -1.61173    1.88050
  216     -1.55271    1.79428
  217     -1.53279    1.75450
  218     -1.45742    1.54163
  219     -1.41572    1.37821
  220     -1.37098    1.17251
  221     -1.30940    0.86716
  222     -1.26888    0.67587
  223     -1.22925    0.51125
  224     -1.19785    0.40113
  225     -1.09430    0.16358
  226     -0.98710    0.05918
  227     -0.95015    0.04127
  228     -0.88958    0.02274
  229     -0.83826    0.01367
  230     -0.79891    0.00925
  231     -0.79012    0.00847
  232     -0.67314    0.00264
  233     -0.62804    0.00168
  234     -0.57626    0.00100
  235     -0.44573    0.00027
  236      0.13022    0.00000
  237      0.88617    0.00000
  238      1.06770    0.00000
  239      1.14770    0.00000
  240      1.33744    0.00000
  241      1.45143    0.00000
  242      1.72837    0.00000
  243      1.84904    0.00000
  244      1.87029    0.00000
  245      3.12877    0.00000
  246      3.49133    0.00000
  247      3.72794    0.00000
  248      3.74960    0.00000
  249      3.84841    0.00000
  250      3.91170    0.00000
  251      3.99662    0.00000
  252      4.07360    0.00000
  253      4.24136    0.00000
  254      4.40310    0.00000
  255      4.41687    0.00000
  256      4.55593    0.00000
  257      4.56869    0.00000
  258      4.76257    0.00000
  259      4.93720    0.00000
  260      4.99368    0.00000
  261      5.13397    0.00000
  262      5.30570    0.00000
  263      5.41866    0.00000
  264      5.70169    0.00000
  265      5.94033    0.00000
  266      5.96043    0.00000
  267      6.13709    0.00000
  268      6.18639    0.00000
  269      6.24080    0.00000

Fermi level: -1.33613

Gap: 0.062 eV
Transition (v -> c):
  (s=0, k=0, n=220, [0.00, 0.00, 0.00]) -> (s=0, k=0, n=221, [0.00, 0.00, 0.00])
Timing:                                      incl.     excl.
-------------------------------------------------------------------
Density initialized from wave functions:     3.084     3.082   0.0% |
 Symmetrize density:                         0.003     0.003   0.0% |
Forces:                                    470.560   470.560   4.3% |-|
Hamiltonian:                                39.932     0.015   0.0% |
 Atomic:                                    11.399     0.099   0.0% |
  XC Correction:                            11.300    11.300   0.1% |
 Calculate atomic Hamiltonians:              1.419     1.419   0.0% |
 Communicate:                               11.408    11.408   0.1% |
 Hartree integrate/restrict:                 0.678     0.678   0.0% |
 Initialize Hamiltonian:                     0.000     0.000   0.0% |
 Poisson:                                    8.065     0.411   0.0% |
  Communicate from 1D:                       1.486     1.486   0.0% |
  Communicate from 2D:                       1.725     1.725   0.0% |
  Communicate to 1D:                         1.316     1.316   0.0% |
  Communicate to 2D:                         2.271     2.271   0.0% |
  FFT 1D:                                    0.280     0.280   0.0% |
  FFT 2D:                                    0.577     0.577   0.0% |
 XC 3D grid:                                 6.896     6.896   0.1% |
 vbar:                                       0.051     0.051   0.0% |
LCAO initialization:                         3.361     0.820   0.0% |
 LCAO eigensolver:                           1.879     0.001   0.0% |
  Calculate projections:                     0.000     0.000   0.0% |
  DenseAtomicCorrection:                     0.000     0.000   0.0% |
  Distribute overlap matrix:                 1.668     1.668   0.0% |
  Orbital Layouts:                           0.209     0.209   0.0% |
  Potential matrix:                          0.001     0.001   0.0% |
 LCAO to grid:                               0.037     0.037   0.0% |
 Set positions (LCAO WFS):                   0.625     0.474   0.0% |
  Basic WFS set positions:                   0.003     0.003   0.0% |
  Basis functions set positions:             0.000     0.000   0.0% |
  P tci:                                     0.001     0.001   0.0% |
  ST tci:                                    0.049     0.049   0.0% |
  mktci:                                     0.098     0.098   0.0% |
Redistribute:                                0.078     0.078   0.0% |
SCF-cycle:                                9546.795     3.614   0.0% |
 Davidson:                                8624.956  3427.691  31.7% |------------|
  Apply hamiltonian:                       309.607   309.607   2.9% ||
  Subspace diag:                           752.544     0.294   0.0% |
   calc_h_matrix:                          468.225   123.430   1.1% |
    Apply hamiltonian:                     344.796   344.796   3.2% ||
   diagonalize:                             59.892    59.892   0.6% |
   rotate_psi:                             224.133   224.133   2.1% ||
  calc. matrices:                         3271.290   861.736   8.0% |--|
   Apply hamiltonian:                     2409.554  2409.554  22.3% |--------|
  diagonalize:                             432.285   432.285   4.0% |-|
  rotate_psi:                              431.539   431.539   4.0% |-|
 Density:                                   93.758     0.057   0.0% |
  Atomic density matrices:                  10.837    10.837   0.1% |
  Mix:                                      62.847    62.847   0.6% |
  Multipole moments:                         8.215     8.215   0.1% |
  Pseudo density:                           11.802    11.754   0.1% |
   Symmetrize density:                       0.048     0.048   0.0% |
 Hamiltonian:                              763.015     0.236   0.0% |
  Atomic:                                  211.794     1.780   0.0% |
   XC Correction:                          210.014   210.014   1.9% ||
  Calculate atomic Hamiltonians:            27.040    27.040   0.2% |
  Communicate:                             211.670   211.670   2.0% ||
  Hartree integrate/restrict:               11.435    11.435   0.1% |
  Poisson:                                 151.170     5.997   0.1% |
   Communicate from 1D:                     29.019    29.019   0.3% |
   Communicate from 2D:                     34.072    34.072   0.3% |
   Communicate to 1D:                       27.078    27.078   0.3% |
   Communicate to 2D:                       39.141    39.141   0.4% |
   FFT 1D:                                   5.212     5.212   0.0% |
   FFT 2D:                                  10.651    10.651   0.1% |
  XC 3D grid:                              148.860   148.860   1.4% ||
  vbar:                                      0.809     0.809   0.0% |
 Orthonormalize:                            61.453     0.021   0.0% |
  calc_s_matrix:                             3.003     3.003   0.0% |
  inverse-cholesky:                         52.316    52.316   0.5% |
  projections:                               0.005     0.005   0.0% |
  rotate_psi_s:                              6.108     6.108   0.1% |
Set symmetry:                                0.002     0.002   0.0% |
Other:                                     765.092   765.092   7.1% |--|
-------------------------------------------------------------------
Total:                                             10828.904 100.0%

Memory usage: 348.15 MiB
Date: Fri Feb 24 11:59:48 2023
