
  ___ ___ ___ _ _ _  
 |   |   |_  | | | | 
 | | | | | . | | | | 
 |__ |  _|___|_____|  22.8.0
 |___|_|             

User:   patriku@vera01-3
Date:   Fri Feb 24 12:52:40 2023
Arch:   x86_64
Pid:    904726
CWD:    /cephyr/users/patriku/Vera/Assignment4/task6_vera/Rh
Python: 3.10.4
gpaw:   /apps/Arch/software/GPAW/22.8.0-foss-2022a/lib/python3.10/site-packages/gpaw
_gpaw:  /apps/Arch/software/GPAW/22.8.0-foss-2022a/lib/python3.10/site-packages/
        _gpaw.cpython-310-x86_64-linux-gnu.so
ase:    /apps/Arch/software/ASE/3.22.1-foss-2022a/lib/python3.10/site-packages/ase (version 3.22.1)
numpy:  /apps/Arch/software/SciPy-bundle/2022.05-foss-2022a/lib/python3.10/site-packages/numpy (version 1.22.3)
scipy:  /apps/Arch/software/SciPy-bundle/2022.05-foss-2022a/lib/python3.10/site-packages/scipy (version 1.8.1)
libxc:  5.2.3
units:  Angstrom and eV
cores: 30
OpenMP: False
OMP_NUM_THREADS: 1

Input parameters:
  kpts: [1 1 1]
  xc: PBE

System changes: positions, numbers, cell, pbc, initial_charges, initial_magmoms 

Initialize ...

species:
  Rh:
    name: Rhodium
    id: 4e1d209aee696a641de1ffa1459b299f
    Z: 45.0
    valence: 15
    core: 30
    charge: 0.0
    file: /apps/Common/software/GPAW-setups/0.9.20000/Rh.PBE.gz
    compensation charges: {type: gauss,
                           rc: 0.38,
                           lmax: 2}
    cutoffs: {filter: 2.48,
              core: 2.35}
    valence states:
      #              energy  rcut
      - 5s(1.00)    -4.297   1.270
      - 4p(6.00)   -50.429   1.381
      - 5p(0.00)    -0.852   1.381
      - 4d(8.00)    -5.942   1.244
      -  s          22.915   1.270
      -  d          21.270   1.244
  
    # Using partial waves for Rh as LCAO basis

  O:
    name: Oxygen
    id: 32ecd46bf208036f09c70b0ec9a88b78
    Z: 8.0
    valence: 6
    core: 2
    charge: 0.0
    file: /apps/Common/software/GPAW-setups/0.9.20000/O.PBE.gz
    compensation charges: {type: gauss,
                           rc: 0.21,
                           lmax: 2}
    cutoffs: {filter: 1.17,
              core: 0.83}
    valence states:
      #              energy  rcut
      - 2s(2.00)   -23.961   0.688
      - 2p(4.00)    -9.029   0.598
      -  s           3.251   0.688
      -  p          18.182   0.598
      -  d           0.000   0.619
  
    # Using partial waves for O as LCAO basis

  C:
    name: Carbon
    id: 4aa54d4b901d75f77cc0ea3eec22967b
    Z: 6.0
    valence: 4
    core: 2
    charge: 0.0
    file: /apps/Common/software/GPAW-setups/0.9.20000/C.PBE.gz
    compensation charges: {type: gauss,
                           rc: 0.20,
                           lmax: 2}
    cutoffs: {filter: 1.14,
              core: 1.14}
    valence states:
      #              energy  rcut
      - 2s(2.00)   -13.751   0.635
      - 2p(2.00)    -5.284   0.635
      -  s          13.461   0.635
      -  p          21.927   0.635
      -  d           0.000   0.635
  
    # Using partial waves for C as LCAO basis

Reference energy: -3516703.949422  # eV

Spin-paired calculation

Convergence criteria:
 Maximum [total energy] change in last 3 cyles: 0.0005 eV / electron
 Maximum integral of absolute [dens]ity change: 0.0001 electrons / valence electron
 Maximum integral of absolute [eigenst]ate change: 4e-08 eV^2 / valence electron
 Maximum number of scf [iter]ations: 333
 (Square brackets indicate name in SCF output, whereas a 'c' in
 the SCF output indicates the quantity has converged.)

Symmetries present (total): 1

  ( 1  0  0)
  ( 0  1  0)
  ( 0  0  1)

1 k-point (Gamma)
1 k-point in the irreducible part of the Brillouin zone
       k-points in crystal coordinates                weights
   0:     0.00000000    0.00000000    0.00000000          1/1

Wave functions: Uniform real-space grid
  Kinetic energy operator: 8*3+1=25 point O(h^6) finite-difference Laplacian
  ScaLapack parameters: grid=1x1, blocksize=None
  Wavefunction extrapolation:
    Improved wavefunction reuse through dual PAW basis 

Occupation numbers: Fermi-Dirac:
  width: 0.1000  # eV
 

Eigensolver
   Davidson(niter=2) 

Densities:
  Coarse grid: 36*36*144 grid
  Fine grid: 72*72*288 grid
  Total Charge: 0.000000 

Density mixing:
  Method: separate
  Backend: pulay
  Linear mixing parameter: 0.05
  old densities: 5
  Damping of long wavelength oscillations: 50 

Hamiltonian:
  XC and Coulomb potentials evaluated on a 72*72*288 grid
  Using the PBE Exchange-Correlation functional
  Interpolation: tri-quintic (5. degree polynomial)
  Poisson solver: FastPoissonSolver using
    Stencil: 8*3+1=25 point O(h^6) finite-difference Laplacian
    FFT axes: [0, 1, 2]
    FST axes: []
 

XC parameters: PBE with 2 nearest neighbor stencil

Memory estimate:
  Process memory now: 221.14 MiB
  Calculator: 38.29 MiB
    Density: 6.82 MiB
      Arrays: 1.24 MiB
      Localized functions: 5.10 MiB
      Mixer: 0.48 MiB
    Hamiltonian: 1.22 MiB
      Arrays: 0.81 MiB
      XC: 0.00 MiB
      Poisson: 0.00 MiB
      vbar: 0.41 MiB
    Wavefunctions: 30.26 MiB
      Arrays psit_nG: 12.09 MiB
      Eigensolver: 17.22 MiB
      Projections: 0.03 MiB
      Projectors: 0.91 MiB

Total number of cores used: 30
Domain decomposition: 3 x 2 x 5

Number of atoms: 29
Number of atomic orbitals: 332
Number of bands in calculation: 253
Number of valence electrons: 415
Bands to converge: occupied

... initialized

Initializing position-dependent things.

Density initialized from atomic densities
Creating initial wave functions:
  253 bands from LCAO basis set

                                           
                                           
                                           
                                           
                                           
                                           
                    O                      
                    C                      
                Rh     Rh     Rh           
                                           
            Rh   RRh    RRh    Rh          
       Rh    RRh   RRh    Rh               
                                           
        Rh     Rh   RRh    Rh    Rh        
                                           
                Rh    Rh     Rh            
           Rh    Rh     Rh                 
                                           
                                           
                                           
                                           

Positions:
   0 Rh     1.354115    0.781798   12.046554    ( 0.0000,  0.0000,  0.0000)
   1 Rh     4.062328    0.781808   12.046558    ( 0.0000,  0.0000,  0.0000)
   2 Rh     6.770542    0.781798   12.046554    ( 0.0000,  0.0000,  0.0000)
   3 Rh     2.708230    3.127176   12.046558    ( 0.0000,  0.0000,  0.0000)
   4 Rh     5.416427    3.127176   12.046558    ( 0.0000,  0.0000,  0.0000)
   5 Rh     8.124657    3.127172   12.046558    ( 0.0000,  0.0000,  0.0000)
   6 Rh     4.062328    5.472562   12.046554    ( 0.0000,  0.0000,  0.0000)
   7 Rh     6.770539    5.472573   12.046558    ( 0.0000,  0.0000,  0.0000)
   8 Rh     9.478775    5.472573   12.046558    ( 0.0000,  0.0000,  0.0000)
   9 Rh    -0.000000    1.563605   14.211247    ( 0.0000,  0.0000,  0.0000)
  10 Rh     2.708215    1.563589   14.211243    ( 0.0000,  0.0000,  0.0000)
  11 Rh     5.416442    1.563589   14.211243    ( 0.0000,  0.0000,  0.0000)
  12 Rh     1.354100    3.908983   14.211241    ( 0.0000,  0.0000,  0.0000)
  13 Rh     4.062328    3.908982   14.211243    ( 0.0000,  0.0000,  0.0000)
  14 Rh     6.770557    3.908983   14.211241    ( 0.0000,  0.0000,  0.0000)
  15 Rh     2.708207    6.254357   14.211247    ( 0.0000,  0.0000,  0.0000)
  16 Rh     5.416450    6.254357   14.211247    ( 0.0000,  0.0000,  0.0000)
  17 Rh     8.124657    6.254353   14.211241    ( 0.0000,  0.0000,  0.0000)
  18 Rh    -0.000000    0.000000   16.375907    ( 0.0000,  0.0000,  0.0000)
  19 Rh     2.708237    0.000001   16.375899    ( 0.0000,  0.0000,  0.0000)
  20 Rh     5.416420    0.000001   16.375899    ( 0.0000,  0.0000,  0.0000)
  21 Rh     1.354119    2.345402   16.375899    ( 0.0000,  0.0000,  0.0000)
  22 Rh     4.062328    2.345386   16.375897    ( 0.0000,  0.0000,  0.0000)
  23 Rh     6.770538    2.345402   16.375899    ( 0.0000,  0.0000,  0.0000)
  24 Rh     2.708210    4.690757   16.375899    ( 0.0000,  0.0000,  0.0000)
  25 Rh     5.416446    4.690757   16.375899    ( 0.0000,  0.0000,  0.0000)
  26 Rh     8.124657    4.690773   16.375896    ( 0.0000,  0.0000,  0.0000)
  27 O      5.000000    2.000000   19.575170    ( 0.0000,  0.0000,  0.0000)
  28 C      5.000000    2.000000   18.424830    ( 0.0000,  0.0000,  0.0000)

Unit cell:
           periodic     x           y           z      points  spacing
  1. axis:    yes    8.124657    0.000000    0.000000    36     0.1954
  2. axis:    yes    4.062328    7.036159    0.000000    36     0.1954
  3. axis:    yes    0.000000    0.000000   28.422503   144     0.1974

  Lengths:   8.124657   8.124657  28.422503
  Angles:   90.000000  90.000000  60.000000

Effective grid spacing dv^(1/3) = 0.2057

     iter     time        total  log10-change:
                         energy  eigst   dens
iter:   1 12:52:45  -197.251469
iter:   2 12:52:48  -200.072811  -0.47  -1.34
iter:   3 12:52:51  -196.352115  -1.14  -1.28
iter:   4 12:52:53  -191.114441  -1.38  -1.32
iter:   5 12:52:56  -184.885314  -0.73  -1.42
iter:   6 12:52:59  -184.048957  -1.64  -1.68
iter:   7 12:53:02  -183.760093  -1.74  -1.83
iter:   8 12:53:04  -183.497936  -2.13  -1.96
iter:   9 12:53:06  -183.467580  -2.42  -2.17
iter:  10 12:53:09  -183.496842c -2.70  -2.26
iter:  11 12:53:12  -183.648600c -2.68  -2.25
iter:  12 12:53:14  -183.420298  -2.78  -2.09
iter:  13 12:53:17  -183.402123  -3.00  -2.42
iter:  14 12:53:19  -183.364137c -3.12  -2.48
iter:  15 12:53:21  -183.355447c -3.26  -2.58
iter:  16 12:53:24  -183.352713c -3.31  -2.65
iter:  17 12:53:26  -183.362423c -3.68  -2.73
iter:  18 12:53:29  -183.344979c -3.65  -2.59
iter:  19 12:53:31  -183.356991c -4.06  -2.83
iter:  20 12:53:34  -183.344171c -4.09  -2.77
iter:  21 12:53:37  -183.345356c -4.12  -2.95
iter:  22 12:53:40  -183.348265c -4.33  -3.05
iter:  23 12:53:42  -183.351785c -4.65  -3.03
iter:  24 12:53:45  -183.345199c -4.81  -2.86
iter:  25 12:53:47  -183.345807c -4.49  -3.22
iter:  26 12:53:50  -183.342453c -5.38  -3.22
iter:  27 12:53:53  -183.342326c -5.55  -3.44
iter:  28 12:53:55  -183.341894c -5.36  -3.60
iter:  29 12:53:57  -183.341368c -5.26  -3.68
iter:  30 12:53:59  -183.341674c -5.92  -3.39
iter:  31 12:54:02  -183.341337c -6.27  -3.67
iter:  32 12:54:04  -183.341223c -5.90  -3.92
iter:  33 12:54:07  -183.341407c -6.87  -4.00c
iter:  34 12:54:09  -183.341394c -6.86  -4.13c
iter:  35 12:54:11  -183.341371c -6.83  -4.21c
iter:  36 12:54:14  -183.341470c -6.89  -4.24c
iter:  37 12:54:16  -183.341354c -7.42c -4.31c

Converged after 37 iterations.

Dipole moment: (-2.677478, -1.576855, -0.087717) |e|*Ang

Energy contributions relative to reference atoms: (reference = -3516703.949422)

Kinetic:        -42.220702
Potential:      -21.115159
External:        +0.000000
XC:            -118.592399
Entropy (-ST):   -2.732212
Local:           -0.046988
--------------------------
Free energy:   -184.707460
Extrapolated:  -183.341354

 Band  Eigenvalues  Occupancy
    0    -47.96444    2.00000
    1    -47.91420    2.00000
    2    -47.89155    2.00000
    3    -47.88807    2.00000
    4    -47.88632    2.00000
    5    -47.87055    2.00000
    6    -47.86829    2.00000
    7    -47.84566    2.00000
    8    -47.83139    2.00000
    9    -47.76351    2.00000
   10    -47.76159    2.00000
   11    -47.75641    2.00000
   12    -47.75426    2.00000
   13    -47.75409    2.00000
   14    -47.73931    2.00000
   15    -47.73465    2.00000
   16    -47.72655    2.00000
   17    -47.71896    2.00000
   18    -47.71627    2.00000
   19    -47.45602    2.00000
   20    -47.45205    2.00000
   21    -47.45047    2.00000
   22    -47.44697    2.00000
   23    -47.44460    2.00000
   24    -47.43682    2.00000
   25    -47.43295    2.00000
   26    -47.42005    2.00000
   27    -47.39234    2.00000
   28    -47.38901    2.00000
   29    -47.38799    2.00000
   30    -47.38703    2.00000
   31    -47.37680    2.00000
   32    -47.37389    2.00000
   33    -47.36209    2.00000
   34    -47.36047    2.00000
   35    -47.35859    2.00000
   36    -47.35792    2.00000
   37    -47.35437    2.00000
   38    -47.35143    2.00000
   39    -47.35118    2.00000
   40    -47.35021    2.00000
   41    -47.34808    2.00000
   42    -47.34640    2.00000
   43    -47.34333    2.00000
   44    -47.34111    2.00000
   45    -47.31355    2.00000
   46    -47.31168    2.00000
   47    -47.24409    2.00000
   48    -47.13515    2.00000
   49    -47.11672    2.00000
   50    -47.11254    2.00000
   51    -47.09998    2.00000
   52    -47.09948    2.00000
   53    -47.09800    2.00000
   54    -47.09598    2.00000
   55    -47.09539    2.00000
   56    -47.09470    2.00000
   57    -47.08565    2.00000
   58    -47.08364    2.00000
   59    -47.08135    2.00000
   60    -47.07950    2.00000
   61    -47.07852    2.00000
   62    -47.07576    2.00000
   63    -47.07362    2.00000
   64    -47.07118    2.00000
   65    -47.06841    2.00000
   66    -47.06683    2.00000
   67    -47.05294    2.00000
   68    -47.04858    2.00000
   69    -47.04727    2.00000
   70    -47.04249    2.00000
   71    -47.04123    2.00000
   72    -47.03963    2.00000
   73    -47.03602    2.00000
   74    -47.02794    2.00000
   75    -47.02026    2.00000
   76    -47.01847    2.00000
   77    -47.00627    2.00000
   78    -47.00376    2.00000
   79    -46.99840    2.00000
   80    -46.99684    2.00000
   81    -24.99374    2.00000
   82    -10.39525    2.00000
   83     -8.00159    2.00000
   84     -7.86642    2.00000
   85     -7.84953    2.00000
   86     -7.44757    2.00000
   87     -6.55560    2.00000
   88     -6.36322    2.00000
   89     -6.23309    2.00000
   90     -6.23246    2.00000
   91     -6.23086    2.00000
   92     -6.22424    2.00000
   93     -6.22264    2.00000
   94     -6.21026    2.00000
   95     -6.01579    2.00000
   96     -6.01251    2.00000
   97     -6.00798    2.00000
   98     -6.00695    2.00000
   99     -6.00631    2.00000
  100     -5.95332    2.00000
  101     -5.76376    2.00000
  102     -5.76327    2.00000
  103     -5.75969    2.00000
  104     -5.75523    2.00000
  105     -5.75441    2.00000
  106     -5.70816    2.00000
  107     -5.44544    2.00000
  108     -5.44368    2.00000
  109     -5.43998    2.00000
  110     -5.43372    2.00000
  111     -5.31601    2.00000
  112     -5.31160    2.00000
  113     -5.30438    2.00000
  114     -5.30200    2.00000
  115     -5.29676    2.00000
  116     -5.29565    2.00000
  117     -5.29460    2.00000
  118     -5.23625    2.00000
  119     -4.58414    2.00000
  120     -4.58153    2.00000
  121     -4.58091    2.00000
  122     -4.57768    2.00000
  123     -4.31936    2.00000
  124     -4.29874    2.00000
  125     -4.28945    2.00000
  126     -4.28812    2.00000
  127     -4.28605    2.00000
  128     -4.21202    2.00000
  129     -3.86444    2.00000
  130     -3.84422    2.00000
  131     -3.84325    2.00000
  132     -3.84029    2.00000
  133     -3.83660    2.00000
  134     -3.81979    2.00000
  135     -3.79203    2.00000
  136     -3.75739    2.00000
  137     -3.75689    2.00000
  138     -3.68303    2.00000
  139     -3.67668    2.00000
  140     -3.54745    2.00000
  141     -3.54317    2.00000
  142     -3.40487    2.00000
  143     -3.39701    2.00000
  144     -3.36325    2.00000
  145     -3.35358    2.00000
  146     -3.35183    2.00000
  147     -3.35018    2.00000
  148     -3.34857    2.00000
  149     -3.34015    2.00000
  150     -3.32760    2.00000
  151     -3.31732    2.00000
  152     -3.31057    2.00000
  153     -3.30707    2.00000
  154     -3.30584    2.00000
  155     -3.30406    2.00000
  156     -3.28007    2.00000
  157     -3.23810    2.00000
  158     -3.23781    2.00000
  159     -3.22818    2.00000
  160     -3.22057    2.00000
  161     -3.21426    2.00000
  162     -3.20960    2.00000
  163     -3.20890    2.00000
  164     -3.05895    2.00000
  165     -2.53662    2.00000
  166     -2.47984    2.00000
  167     -2.47016    2.00000
  168     -2.46184    2.00000
  169     -2.46025    2.00000
  170     -2.18156    1.99998
  171     -2.02125    1.99992
  172     -2.00292    1.99990
  173     -1.98785    1.99989
  174     -1.97900    1.99988
  175     -1.97866    1.99988
  176     -1.97636    1.99987
  177     -1.97000    1.99987
  178     -1.95810    1.99985
  179     -1.94739    1.99983
  180     -1.94713    1.99983
  181     -1.93413    1.99981
  182     -1.93020    1.99980
  183     -1.91884    1.99978
  184     -1.91422    1.99977
  185     -1.91233    1.99976
  186     -1.87785    1.99966
  187     -1.86148    1.99960
  188     -1.86071    1.99960
  189     -1.36982    1.94718
  190     -1.30274    1.89924
  191     -1.29526    1.89183
  192     -1.29304    1.88954
  193     -1.29133    1.88774
  194     -1.28911    1.88537
  195     -1.28179    1.87719
  196     -1.28167    1.87706
  197     -1.24653    1.82970
  198     -1.23511    1.81104
  199     -1.23241    1.80638
  200     -1.23038    1.80279
  201     -1.22698    1.79666
  202     -1.22476    1.79258
  203     -1.06079    1.25289
  204     -1.00620    0.98555
  205     -1.00023    0.95573
  206     -0.99694    0.93929
  207     -0.99164    0.91295
  208     -0.99048    0.90721
  209     -0.98957    0.90267
  210     -0.94452    0.68792
  211     -0.93159    0.63077
  212     -0.92895    0.61945
  213     -0.86444    0.38105
  214     -0.83209    0.29107
  215     -0.82593    0.27608
  216     -0.82480    0.27341
  217     -0.82110    0.26479
  218     -0.82016    0.26265
  219     -0.81857    0.25903
  220     -0.67064    0.06557
  221     -0.66824    0.06406
  222     -0.53557    0.01741
  223     -0.52996    0.01647
  224     -0.44411    0.00701
  225     -0.43101    0.00615
  226     -0.40921    0.00495
  227     -0.40466    0.00473
  228     -0.40356    0.00468
  229     -0.40187    0.00460
  230     -0.38828    0.00402
  231     -0.38596    0.00393
  232     -0.25193    0.00103
  233     -0.24997    0.00101
  234     -0.24891    0.00100
  235     -0.00995    0.00009
  236      1.00962    0.00000
  237      1.44432    0.00000
  238      1.58884    0.00000
  239      2.63412    0.00000
  240      2.63982    0.00000
  241      2.65103    0.00000
  242      3.09880    0.00000
  243      3.25401    0.00000
  244      3.60370    0.00000
  245      3.68386    0.00000
  246      3.77149    0.00000
  247      4.18519    0.00000
  248      5.12544    0.00000
  249      5.25630    0.00000
  250      5.27336    0.00000
  251      5.33863    0.00000
  252      5.43873    0.00000

Fermi level: -1.00909

Gap: 0.055 eV
Transition (v -> c):
  (s=0, k=0, n=203, [0.00, 0.00, 0.00]) -> (s=0, k=0, n=204, [0.00, 0.00, 0.00])

Forces in eV/Ang:
  0 Rh   -0.02893   -0.09067    0.85856
  1 Rh   -0.01811   -0.00816    0.95644
  2 Rh    0.03152   -0.00892    0.98548
  3 Rh    0.02888   -0.02545    0.84759
  4 Rh    0.00167    0.01131    0.96721
  5 Rh   -0.04641   -0.02479    0.78975
  6 Rh    0.06305    0.06787    0.88199
  7 Rh   -0.06459    0.04806    0.88055
  8 Rh   -0.00117    0.05683    0.75042
  9 Rh    0.02855    0.03912   -0.03359
 10 Rh    0.08419    0.13639   -0.10492
 11 Rh   -0.01881    0.01723   -0.19375
 12 Rh    0.06370   -0.06362    0.07848
 13 Rh   -0.06156   -0.10994   -0.18563
 14 Rh    0.01571   -0.04746   -0.10158
 15 Rh   -0.02075   -0.03084   -0.00464
 16 Rh   -0.06199    0.05423    0.03684
 17 Rh    0.03048   -0.00049   -0.04223
 18 Rh    0.09691   -0.07319   -0.97120
 19 Rh   -0.11614   -0.21984   -1.02855
 20 Rh    0.10957   -0.31361   -0.66603
 21 Rh   -0.18094    0.05759   -0.91535
 22 Rh    0.58300   -0.26827    1.39028
 23 Rh    0.18626    0.01021   -0.34100
 24 Rh   -0.12966    0.13679   -0.88746
 25 Rh    0.13503    0.27074   -0.98361
 26 Rh   -0.05518    0.05012   -0.70590
 27 O     0.23925   -0.16486    0.06823
 28 C    -0.93529    0.45553   -2.25432

System changes: positions 

Initializing position-dependent things.

Density initialized from wave functions
                                           
                                           
                                           
                                           
                                           
                                           
                    O                      
                                           
                Rh  C  Rh     Rh           
                                           
            Rh   RRh    RRh    Rh          
       Rh    RRh   RRh    Rh               
                                           
        Rh     Rh   RRh    Rh    Rh        
                                           
                Rh    Rh     Rh            
           Rh    Rh     Rh                 
                                           
                                           
                                           
                                           

Positions:
   0 Rh     1.353701    0.780503   12.058819    ( 0.0000,  0.0000,  0.0000)
   1 Rh     4.062070    0.781691   12.060221    ( 0.0000,  0.0000,  0.0000)
   2 Rh     6.770993    0.781671   12.060633    ( 0.0000,  0.0000,  0.0000)
   3 Rh     2.708642    3.126812   12.058666    ( 0.0000,  0.0000,  0.0000)
   4 Rh     5.416451    3.127337   12.060375    ( 0.0000,  0.0000,  0.0000)
   5 Rh     8.123994    3.126818   12.057840    ( 0.0000,  0.0000,  0.0000)
   6 Rh     4.063229    5.473532   12.059154    ( 0.0000,  0.0000,  0.0000)
   7 Rh     6.769616    5.473260   12.059137    ( 0.0000,  0.0000,  0.0000)
   8 Rh     9.478758    5.473385   12.057278    ( 0.0000,  0.0000,  0.0000)
   9 Rh     0.000408    1.564164   14.210767    ( 0.0000,  0.0000,  0.0000)
  10 Rh     2.709418    1.565537   14.209744    ( 0.0000,  0.0000,  0.0000)
  11 Rh     5.416173    1.563835   14.208475    ( 0.0000,  0.0000,  0.0000)
  12 Rh     1.355010    3.908074   14.212362    ( 0.0000,  0.0000,  0.0000)
  13 Rh     4.061449    3.907411   14.208591    ( 0.0000,  0.0000,  0.0000)
  14 Rh     6.770781    3.908305   14.209790    ( 0.0000,  0.0000,  0.0000)
  15 Rh     2.707910    6.253916   14.211180    ( 0.0000,  0.0000,  0.0000)
  16 Rh     5.415564    6.255132   14.211773    ( 0.0000,  0.0000,  0.0000)
  17 Rh     8.125092    6.254346   14.210638    ( 0.0000,  0.0000,  0.0000)
  18 Rh     0.001384   -0.001046   16.362033    ( 0.0000,  0.0000,  0.0000)
  19 Rh     2.706578   -0.003140   16.361206    ( 0.0000,  0.0000,  0.0000)
  20 Rh     5.417985   -0.004480   16.366384    ( 0.0000,  0.0000,  0.0000)
  21 Rh     1.351534    2.346224   16.362823    ( 0.0000,  0.0000,  0.0000)
  22 Rh     4.070657    2.341554   16.395758    ( 0.0000,  0.0000,  0.0000)
  23 Rh     6.773199    2.345548   16.371028    ( 0.0000,  0.0000,  0.0000)
  24 Rh     2.706358    4.692711   16.363221    ( 0.0000,  0.0000,  0.0000)
  25 Rh     5.418375    4.694625   16.361847    ( 0.0000,  0.0000,  0.0000)
  26 Rh     8.123869    4.691489   16.365811    ( 0.0000,  0.0000,  0.0000)
  27 O      5.003418    1.997645   19.576145    ( 0.0000,  0.0000,  0.0000)
  28 C      4.986639    2.006508   18.392625    ( 0.0000,  0.0000,  0.0000)

Unit cell:
           periodic     x           y           z      points  spacing
  1. axis:    yes    8.124657    0.000000    0.000000    36     0.1954
  2. axis:    yes    4.062328    7.036159    0.000000    36     0.1954
  3. axis:    yes    0.000000    0.000000   28.422503   144     0.1974

  Lengths:   8.124657   8.124657  28.422503
  Angles:   90.000000  90.000000  60.000000

Effective grid spacing dv^(1/3) = 0.2057

     iter     time        total  log10-change:
                         energy  eigst   dens
iter:   1 12:54:25  -187.445999  -1.52
iter:   2 12:54:28  -237.387630  -1.00  -1.65
iter:   3 12:54:30  -183.938983  -1.52  -1.16
iter:   4 12:54:33  -184.161547  -2.04  -2.20
iter:   5 12:54:36  -184.062397  -3.10  -2.06
iter:   6 12:54:38  -183.667299  -3.23  -2.07
iter:   7 12:54:40  -183.650652  -3.63  -2.63
iter:   8 12:54:43  -183.643189c -4.18  -2.77
iter:   9 12:54:45  -183.643441c -4.46  -2.99
iter:  10 12:54:48  -183.640763c -3.90  -2.88
iter:  11 12:54:50  -183.638444c -4.48  -3.20
iter:  12 12:54:53  -183.638153c -4.79  -3.17
iter:  13 12:54:55  -183.637508c -5.39  -3.42
iter:  14 12:54:58  -183.637920c -5.16  -3.53
iter:  15 12:55:01  -183.636595c -5.58  -3.48
iter:  16 12:55:03  -183.637018c -5.84  -3.73
iter:  17 12:55:06  -183.636536c -5.85  -3.75
iter:  18 12:55:09  -183.636849c -6.23  -4.00
iter:  19 12:55:11  -183.636464c -6.40  -3.89
iter:  20 12:55:14  -183.636651c -6.56  -4.13c
iter:  21 12:55:16  -183.636374c -6.72  -4.00c
iter:  22 12:55:18  -183.636569c -7.14  -4.30c
iter:  23 12:55:21  -183.636445c -7.52c -4.28c

Converged after 23 iterations.

Dipole moment: (-2.263152, -1.204807, -0.160446) |e|*Ang

Energy contributions relative to reference atoms: (reference = -3516703.949422)

Kinetic:        -43.379278
Potential:      -19.852076
External:        +0.000000
XC:            -119.004807
Entropy (-ST):   -2.677530
Local:           -0.061520
--------------------------
Free energy:   -184.975210
Extrapolated:  -183.636445

 Band  Eigenvalues  Occupancy
    0    -48.04232    2.00000
    1    -47.99393    2.00000
    2    -47.96890    2.00000
    3    -47.96399    2.00000
    4    -47.95463    2.00000
    5    -47.94035    2.00000
    6    -47.93520    2.00000
    7    -47.90971    2.00000
    8    -47.89497    2.00000
    9    -47.82533    2.00000
   10    -47.82355    2.00000
   11    -47.82029    2.00000
   12    -47.81847    2.00000
   13    -47.81394    2.00000
   14    -47.80143    2.00000
   15    -47.79620    2.00000
   16    -47.78850    2.00000
   17    -47.78014    2.00000
   18    -47.77297    2.00000
   19    -47.51714    2.00000
   20    -47.51224    2.00000
   21    -47.50804    2.00000
   22    -47.50582    2.00000
   23    -47.50210    2.00000
   24    -47.48817    2.00000
   25    -47.48357    2.00000
   26    -47.46608    2.00000
   27    -47.44853    2.00000
   28    -47.44377    2.00000
   29    -47.44121    2.00000
   30    -47.43832    2.00000
   31    -47.42806    2.00000
   32    -47.42304    2.00000
   33    -47.41482    2.00000
   34    -47.41462    2.00000
   35    -47.41017    2.00000
   36    -47.40787    2.00000
   37    -47.40763    2.00000
   38    -47.40634    2.00000
   39    -47.40381    2.00000
   40    -47.40226    2.00000
   41    -47.40165    2.00000
   42    -47.40018    2.00000
   43    -47.39862    2.00000
   44    -47.39632    2.00000
   45    -47.36480    2.00000
   46    -47.36164    2.00000
   47    -47.29652    2.00000
   48    -47.19839    2.00000
   49    -47.16515    2.00000
   50    -47.15968    2.00000
   51    -47.15301    2.00000
   52    -47.14971    2.00000
   53    -47.14952    2.00000
   54    -47.14795    2.00000
   55    -47.14774    2.00000
   56    -47.14567    2.00000
   57    -47.14200    2.00000
   58    -47.13916    2.00000
   59    -47.13828    2.00000
   60    -47.13757    2.00000
   61    -47.13605    2.00000
   62    -47.13489    2.00000
   63    -47.13320    2.00000
   64    -47.13136    2.00000
   65    -47.13077    2.00000
   66    -47.12781    2.00000
   67    -47.11689    2.00000
   68    -47.11213    2.00000
   69    -47.11040    2.00000
   70    -47.10365    2.00000
   71    -47.10306    2.00000
   72    -47.10146    2.00000
   73    -47.09814    2.00000
   74    -47.08594    2.00000
   75    -47.08012    2.00000
   76    -47.06980    2.00000
   77    -47.05734    2.00000
   78    -47.05495    2.00000
   79    -47.05046    2.00000
   80    -47.04850    2.00000
   81    -24.34513    2.00000
   82    -10.35620    2.00000
   83     -8.03786    2.00000
   84     -7.46576    2.00000
   85     -7.44329    2.00000
   86     -7.42337    2.00000
   87     -6.63215    2.00000
   88     -6.42003    2.00000
   89     -6.31377    2.00000
   90     -6.31089    2.00000
   91     -6.30716    2.00000
   92     -6.30190    2.00000
   93     -6.30091    2.00000
   94     -6.28459    2.00000
   95     -6.08819    2.00000
   96     -6.08437    2.00000
   97     -6.08361    2.00000
   98     -6.07771    2.00000
   99     -6.07550    2.00000
  100     -6.02005    2.00000
  101     -5.84892    2.00000
  102     -5.84622    2.00000
  103     -5.84139    2.00000
  104     -5.83891    2.00000
  105     -5.82976    2.00000
  106     -5.78081    2.00000
  107     -5.53617    2.00000
  108     -5.53152    2.00000
  109     -5.52279    2.00000
  110     -5.51536    2.00000
  111     -5.39262    2.00000
  112     -5.38644    2.00000
  113     -5.36572    2.00000
  114     -5.36008    2.00000
  115     -5.35677    2.00000
  116     -5.35272    2.00000
  117     -5.34523    2.00000
  118     -5.29492    2.00000
  119     -4.66384    2.00000
  120     -4.66256    2.00000
  121     -4.65769    2.00000
  122     -4.65245    2.00000
  123     -4.37711    2.00000
  124     -4.36586    2.00000
  125     -4.35570    2.00000
  126     -4.35188    2.00000
  127     -4.34840    2.00000
  128     -4.27473    2.00000
  129     -3.91782    2.00000
  130     -3.89567    2.00000
  131     -3.89412    2.00000
  132     -3.89134    2.00000
  133     -3.88605    2.00000
  134     -3.85959    2.00000
  135     -3.83847    2.00000
  136     -3.83107    2.00000
  137     -3.82911    2.00000
  138     -3.73881    2.00000
  139     -3.73520    2.00000
  140     -3.62230    2.00000
  141     -3.61764    2.00000
  142     -3.46106    2.00000
  143     -3.45629    2.00000
  144     -3.45391    2.00000
  145     -3.45032    2.00000
  146     -3.44469    2.00000
  147     -3.44154    2.00000
  148     -3.43882    2.00000
  149     -3.42250    2.00000
  150     -3.38880    2.00000
  151     -3.37137    2.00000
  152     -3.36770    2.00000
  153     -3.36072    2.00000
  154     -3.35863    2.00000
  155     -3.35386    2.00000
  156     -3.33485    2.00000
  157     -3.29272    2.00000
  158     -3.29115    2.00000
  159     -3.28794    2.00000
  160     -3.28261    2.00000
  161     -3.27356    2.00000
  162     -3.26951    2.00000
  163     -3.26782    2.00000
  164     -3.10041    2.00000
  165     -2.58845    2.00000
  166     -2.52834    2.00000
  167     -2.52224    2.00000
  168     -2.51663    2.00000
  169     -2.51405    2.00000
  170     -2.23600    1.99998
  171     -2.08797    1.99993
  172     -2.07180    1.99992
  173     -2.05932    1.99991
  174     -2.05219    1.99990
  175     -2.05113    1.99990
  176     -2.04601    1.99990
  177     -2.03297    1.99988
  178     -2.00303    1.99984
  179     -1.98799    1.99982
  180     -1.98597    1.99981
  181     -1.97899    1.99980
  182     -1.97504    1.99979
  183     -1.97397    1.99979
  184     -1.97108    1.99978
  185     -1.96739    1.99977
  186     -1.92213    1.99965
  187     -1.91620    1.99962
  188     -1.90575    1.99958
  189     -1.42365    1.94948
  190     -1.36526    1.91120
  191     -1.36040    1.90699
  192     -1.34364    1.89094
  193     -1.33615    1.88296
  194     -1.33232    1.87866
  195     -1.32693    1.87238
  196     -1.32490    1.86992
  197     -1.30567    1.84449
  198     -1.29567    1.82953
  199     -1.29012    1.82066
  200     -1.28745    1.81627
  201     -1.28470    1.81162
  202     -1.28224    1.80738
  203     -1.10765    1.24162
  204     -1.06284    1.02247
  205     -1.05843    1.00041
  206     -1.04900    0.95330
  207     -1.04317    0.92426
  208     -1.04113    0.91413
  209     -1.03942    0.90565
  210     -0.98629    0.65453
  211     -0.97502    0.60593
  212     -0.97083    0.58834
  213     -0.89937    0.33882
  214     -0.88276    0.29462
  215     -0.87506    0.27579
  216     -0.87144    0.26729
  217     -0.86495    0.25262
  218     -0.86265    0.24758
  219     -0.85731    0.23623
  220     -0.71083    0.06006
  221     -0.70918    0.05910
  222     -0.57601    0.01595
  223     -0.57007    0.01504
  224     -0.48159    0.00624
  225     -0.46810    0.00545
  226     -0.44363    0.00427
  227     -0.43487    0.00391
  228     -0.43328    0.00385
  229     -0.43085    0.00376
  230     -0.42718    0.00362
  231     -0.42114    0.00341
  232     -0.28644    0.00089
  233     -0.28444    0.00087
  234     -0.28166    0.00085
  235     -0.03614    0.00007
  236      1.03799    0.00000
  237      1.36651    0.00000
  238      1.50785    0.00000
  239      2.61471    0.00000
  240      2.62029    0.00000
  241      2.63400    0.00000
  242      3.04793    0.00000
  243      3.21691    0.00000
  244      3.62628    0.00000
  245      3.71178    0.00000
  246      3.78247    0.00000
  247      4.19952    0.00000
  248      4.79288    0.00000
  249      5.24623    0.00000
  250      5.25388    0.00000
  251      5.28928    0.00000
  252      5.41741    0.00000

Fermi level: -1.05835

Gap: 0.009 eV
Transition (v -> c):
  (s=0, k=0, n=205, [0.00, 0.00, 0.00]) -> (s=0, k=0, n=206, [0.00, 0.00, 0.00])

Forces in eV/Ang:
  0 Rh   -0.03509   -0.09333    0.85838
  1 Rh   -0.01802   -0.00241    0.92700
  2 Rh    0.03458   -0.00947    0.97264
  3 Rh    0.02731   -0.02554    0.80683
  4 Rh   -0.00312    0.00536    0.93707
  5 Rh   -0.04004   -0.01276    0.73101
  6 Rh    0.06101    0.07557    0.87530
  7 Rh   -0.05782    0.04892    0.84589
  8 Rh   -0.00777    0.04388    0.68942
  9 Rh    0.02403    0.04265   -0.03229
 10 Rh    0.12304    0.15788   -0.12493
 11 Rh   -0.02669    0.02317   -0.22514
 12 Rh    0.06281   -0.06089    0.08788
 13 Rh   -0.05990   -0.14845   -0.20810
 14 Rh    0.00958   -0.04791   -0.10330
 15 Rh   -0.02665   -0.03041    0.00347
 16 Rh   -0.04876    0.04329    0.05507
 17 Rh    0.02599    0.00053   -0.04167
 18 Rh    0.12960   -0.08597   -0.94523
 19 Rh   -0.13253   -0.21219   -1.02179
 20 Rh    0.09479   -0.31566   -0.63272
 21 Rh   -0.20803    0.08564   -0.91502
 22 Rh    0.71343   -0.31586    1.74100
 23 Rh    0.16854    0.03291   -0.28607
 24 Rh   -0.17176    0.13710   -0.88623
 25 Rh    0.12904    0.26916   -0.97372
 26 Rh   -0.02887    0.03516   -0.66742
 27 O     0.20432   -0.13544   -2.85039
 28 C    -0.95603    0.44420    0.50245

System changes: positions 

Initializing position-dependent things.

Density initialized from wave functions
                                           
                                           
                                           
                                           
                                           
                                           
                     O                     
                                           
                    C         Rh           
                Rh     Rh                  
            Rh   RhRh   RRh    Rh          
       Rh     Rh    Rh                     
             Rh    Rh     Rh               
        Rh     Rh   RRh    Rh    Rh        
                      Rh                   
                Rh           Rh            
           Rh    Rh     Rh                 
                                           
                                           
                                           
                                           

Positions:
   0 Rh     1.350236    0.770201   12.155525    ( 0.0000,  0.0000,  0.0000)
   1 Rh     4.060032    0.780964   12.166974    ( 0.0000,  0.0000,  0.0000)
   2 Rh     6.774645    0.780648   12.171213    ( 0.0000,  0.0000,  0.0000)
   3 Rh     2.711843    3.123943   12.152780    ( 0.0000,  0.0000,  0.0000)
   4 Rh     5.416479    3.128412   12.168318    ( 0.0000,  0.0000,  0.0000)
   5 Rh     8.118980    3.124428   12.144836    ( 0.0000,  0.0000,  0.0000)
   6 Rh     4.070263    5.481435   12.158282    ( 0.0000,  0.0000,  0.0000)
   7 Rh     6.762567    5.478702   12.157167    ( 0.0000,  0.0000,  0.0000)
   8 Rh     9.478405    5.479354   12.139769    ( 0.0000,  0.0000,  0.0000)
   9 Rh     0.003472    1.568688   14.207026    ( 0.0000,  0.0000,  0.0000)
  10 Rh     2.720200    1.581619   14.197256    ( 0.0000,  0.0000,  0.0000)
  11 Rh     5.413791    1.565975   14.185601    ( 0.0000,  0.0000,  0.0000)
  12 Rh     1.362156    3.900999   14.221517    ( 0.0000,  0.0000,  0.0000)
  13 Rh     4.054570    3.893740   14.186930    ( 0.0000,  0.0000,  0.0000)
  14 Rh     6.772346    3.902944   14.198290    ( 0.0000,  0.0000,  0.0000)
  15 Rh     2.705376    6.250456   14.210929    ( 0.0000,  0.0000,  0.0000)
  16 Rh     5.409024    6.260875   14.216533    ( 0.0000,  0.0000,  0.0000)
  17 Rh     8.128375    6.254325   14.205899    ( 0.0000,  0.0000,  0.0000)
  18 Rh     0.013394   -0.009717   16.253501    ( 0.0000,  0.0000,  0.0000)
  19 Rh     2.692947   -0.027648   16.245572    ( 0.0000,  0.0000,  0.0000)
  20 Rh     5.429833   -0.039875   16.292474    ( 0.0000,  0.0000,  0.0000)
  21 Rh     1.330246    2.353650   16.259724    ( 0.0000,  0.0000,  0.0000)
  22 Rh     4.140691    2.309743   16.564096    ( 0.0000,  0.0000,  0.0000)
  23 Rh     6.793587    2.347457   16.334453    ( 0.0000,  0.0000,  0.0000)
  24 Rh     2.690345    4.708130   16.263294    ( 0.0000,  0.0000,  0.0000)
  25 Rh     5.433386    4.725070   16.251380    ( 0.0000,  0.0000,  0.0000)
  26 Rh     8.118533    4.696635   16.287583    ( 0.0000,  0.0000,  0.0000)
  27 O      5.029200    1.980058   19.486220    ( 0.0000,  0.0000,  0.0000)
  28 C      4.880590    2.057442   18.230887    ( 0.0000,  0.0000,  0.0000)

Unit cell:
           periodic     x           y           z      points  spacing
  1. axis:    yes    8.124657    0.000000    0.000000    36     0.1954
  2. axis:    yes    4.062328    7.036159    0.000000    36     0.1954
  3. axis:    yes    0.000000    0.000000   28.422503   144     0.1974

  Lengths:   8.124657   8.124657  28.422503
  Angles:   90.000000  90.000000  60.000000

Effective grid spacing dv^(1/3) = 0.2057

     iter     time        total  log10-change:
                         energy  eigst   dens
iter:   1 12:55:30  -228.636261  +0.04
iter:   2 12:55:32  -196.883548  -0.50  -1.16
iter:   3 12:55:34  -240.998336  -0.76  -1.44
iter:   4 12:55:37  -189.090483  -1.50  -1.17
iter:   5 12:55:39  -186.646661  -1.66  -1.63
iter:   6 12:55:41  -185.735156  -2.19  -1.79
iter:   7 12:55:44  -185.844889  -2.25  -1.95
iter:   8 12:55:46  -185.169080  -2.70  -1.95
iter:   9 12:55:48  -185.149656  -3.09  -2.29
iter:  10 12:55:51  -185.064317c -2.99  -2.34
iter:  11 12:55:54  -185.066547c -3.15  -2.57
iter:  12 12:55:57  -185.057033c -3.54  -2.73
iter:  13 12:55:59  -185.055915c -3.87  -2.83
iter:  14 12:56:02  -185.050566c -3.98  -2.91
iter:  15 12:56:04  -185.050453c -4.16  -2.98
iter:  16 12:56:07  -185.049087c -4.35  -3.18
iter:  17 12:56:09  -185.050571c -4.49  -3.13
iter:  18 12:56:11  -185.047521c -4.87  -3.25
iter:  19 12:56:14  -185.048324c -5.16  -3.51
iter:  20 12:56:16  -185.046986c -5.34  -3.53
iter:  21 12:56:18  -185.048631c -5.41  -3.62
iter:  22 12:56:21  -185.047306c -5.47  -3.52
iter:  23 12:56:24  -185.047910c -5.83  -3.78
iter:  24 12:56:27  -185.047341c -5.97  -3.69
iter:  25 12:56:29  -185.047638c -6.09  -3.93
iter:  26 12:56:32  -185.047167c -5.84  -3.97
iter:  27 12:56:34  -185.047643c -6.51  -3.99
iter:  28 12:56:37  -185.047444c -6.69  -4.27c
iter:  29 12:56:39  -185.047581c -6.98  -4.20c
iter:  30 12:56:42  -185.047486c -7.19  -4.35c
iter:  31 12:56:44  -185.047593c -7.27  -4.29c
iter:  32 12:56:47  -185.047539c -7.35  -4.49c
iter:  33 12:56:49  -185.047735c -7.14  -4.53c
iter:  34 12:56:52  -185.047533c -7.73c -4.41c

Converged after 34 iterations.

Dipole moment: (0.979425, 1.587733, -0.432415) |e|*Ang

Energy contributions relative to reference atoms: (reference = -3516703.949422)

Kinetic:        +21.278159
Potential:      -74.128568
External:        +0.000000
XC:            -130.899890
Entropy (-ST):   -2.312721
Local:           -0.140873
--------------------------
Free energy:   -186.203894
Extrapolated:  -185.047533

 Band  Eigenvalues  Occupancy
    0    -48.50488    2.00000
    1    -48.44631    2.00000
    2    -48.41456    2.00000
    3    -48.38959    2.00000
    4    -48.36015    2.00000
    5    -48.34111    2.00000
    6    -48.30100    2.00000
    7    -48.25465    2.00000
    8    -48.25374    2.00000
    9    -48.17695    2.00000
   10    -48.17529    2.00000
   11    -48.16620    2.00000
   12    -48.15877    2.00000
   13    -48.14426    2.00000
   14    -48.14063    2.00000
   15    -48.12397    2.00000
   16    -48.11932    2.00000
   17    -48.11021    2.00000
   18    -48.07049    2.00000
   19    -47.87486    2.00000
   20    -47.84768    2.00000
   21    -47.83879    2.00000
   22    -47.83245    2.00000
   23    -47.81812    2.00000
   24    -47.80484    2.00000
   25    -47.79422    2.00000
   26    -47.74646    2.00000
   27    -47.72482    2.00000
   28    -47.71574    2.00000
   29    -47.71066    2.00000
   30    -47.70596    2.00000
   31    -47.70447    2.00000
   32    -47.68475    2.00000
   33    -47.67942    2.00000
   34    -47.67431    2.00000
   35    -47.67199    2.00000
   36    -47.66672    2.00000
   37    -47.66024    2.00000
   38    -47.64946    2.00000
   39    -47.64381    2.00000
   40    -47.63073    2.00000
   41    -47.62831    2.00000
   42    -47.61465    2.00000
   43    -47.60167    2.00000
   44    -47.59002    2.00000
   45    -47.57462    2.00000
   46    -47.55238    2.00000
   47    -47.54865    2.00000
   48    -47.52729    2.00000
   49    -47.50427    2.00000
   50    -47.49738    2.00000
   51    -47.49143    2.00000
   52    -47.47981    2.00000
   53    -47.46358    2.00000
   54    -47.44407    2.00000
   55    -47.42793    2.00000
   56    -47.42233    2.00000
   57    -47.42121    2.00000
   58    -47.41753    2.00000
   59    -47.41200    2.00000
   60    -47.40833    2.00000
   61    -47.40742    2.00000
   62    -47.40566    2.00000
   63    -47.39760    2.00000
   64    -47.39365    2.00000
   65    -47.38858    2.00000
   66    -47.38543    2.00000
   67    -47.37436    2.00000
   68    -47.36857    2.00000
   69    -47.36644    2.00000
   70    -47.36343    2.00000
   71    -47.35614    2.00000
   72    -47.34698    2.00000
   73    -47.34146    2.00000
   74    -47.33662    2.00000
   75    -47.32024    2.00000
   76    -47.28224    2.00000
   77    -47.27844    2.00000
   78    -47.27750    2.00000
   79    -47.26530    2.00000
   80    -47.26037    2.00000
   81    -22.46050    2.00000
   82    -10.48005    2.00000
   83     -8.34090    2.00000
   84     -7.43569    2.00000
   85     -7.12956    2.00000
   86     -6.87317    2.00000
   87     -6.82890    2.00000
   88     -6.82563    2.00000
   89     -6.78885    2.00000
   90     -6.77733    2.00000
   91     -6.77545    2.00000
   92     -6.76938    2.00000
   93     -6.62267    2.00000
   94     -6.58937    2.00000
   95     -6.56535    2.00000
   96     -6.52618    2.00000
   97     -6.51504    2.00000
   98     -6.45122    2.00000
   99     -6.39311    2.00000
  100     -6.38600    2.00000
  101     -6.38015    2.00000
  102     -6.34530    2.00000
  103     -6.33107    2.00000
  104     -6.25146    2.00000
  105     -6.24184    2.00000
  106     -6.21128    2.00000
  107     -6.11252    2.00000
  108     -6.07301    2.00000
  109     -5.99705    2.00000
  110     -5.96351    2.00000
  111     -5.88773    2.00000
  112     -5.87455    2.00000
  113     -5.67041    2.00000
  114     -5.65589    2.00000
  115     -5.63695    2.00000
  116     -5.61597    2.00000
  117     -5.52055    2.00000
  118     -5.50470    2.00000
  119     -5.15122    2.00000
  120     -5.14869    2.00000
  121     -5.14090    2.00000
  122     -5.05954    2.00000
  123     -4.78676    2.00000
  124     -4.74405    2.00000
  125     -4.73760    2.00000
  126     -4.68749    2.00000
  127     -4.66407    2.00000
  128     -4.61249    2.00000
  129     -4.31160    2.00000
  130     -4.30398    2.00000
  131     -4.20124    2.00000
  132     -4.16376    2.00000
  133     -4.13701    2.00000
  134     -4.12734    2.00000
  135     -4.12134    2.00000
  136     -4.11786    2.00000
  137     -4.10547    2.00000
  138     -4.08097    2.00000
  139     -4.07483    2.00000
  140     -4.05272    2.00000
  141     -4.03483    2.00000
  142     -4.03459    2.00000
  143     -4.02373    2.00000
  144     -4.02056    2.00000
  145     -3.98356    2.00000
  146     -3.94187    2.00000
  147     -3.91351    2.00000
  148     -3.76536    2.00000
  149     -3.72365    2.00000
  150     -3.66889    2.00000
  151     -3.65571    2.00000
  152     -3.63311    2.00000
  153     -3.62996    2.00000
  154     -3.61462    2.00000
  155     -3.60798    2.00000
  156     -3.58867    2.00000
  157     -3.58400    2.00000
  158     -3.57278    2.00000
  159     -3.56747    2.00000
  160     -3.53138    2.00000
  161     -3.52563    2.00000
  162     -3.48317    2.00000
  163     -3.44594    2.00000
  164     -3.24646    2.00000
  165     -2.82793    2.00000
  166     -2.78607    2.00000
  167     -2.77636    2.00000
  168     -2.77281    2.00000
  169     -2.74060    2.00000
  170     -2.59273    2.00000
  171     -2.56316    1.99999
  172     -2.49779    1.99999
  173     -2.48137    1.99999
  174     -2.47191    1.99999
  175     -2.46853    1.99999
  176     -2.44138    1.99998
  177     -2.40783    1.99998
  178     -2.29981    1.99993
  179     -2.27870    1.99991
  180     -2.24222    1.99987
  181     -2.21738    1.99984
  182     -2.20386    1.99981
  183     -2.17044    1.99974
  184     -2.14100    1.99965
  185     -2.11734    1.99956
  186     -2.08839    1.99941
  187     -2.05008    1.99913
  188     -1.99843    1.99855
  189     -1.78949    1.98834
  190     -1.72778    1.97850
  191     -1.65489    1.95594
  192     -1.65091    1.95419
  193     -1.64350    1.95075
  194     -1.60629    1.92933
  195     -1.59895    1.92415
  196     -1.59255    1.91935
  197     -1.57022    1.90018
  198     -1.51983    1.84000
  199     -1.49977    1.80788
  200     -1.49086    1.79183
  201     -1.45726    1.72035
  202     -1.45589    1.71702
  203     -1.37017    1.44054
  204     -1.36183    1.40632
  205     -1.30725    1.15700
  206     -1.27544    0.99926
  207     -1.27070    0.97554
  208     -1.25599    0.90232
  209     -1.25423    0.89360
  210     -1.15950    0.47699
  211     -1.15158    0.44884
  212     -1.13388    0.39024
  213     -1.12254    0.35584
  214     -1.11049    0.32193
  215     -1.06588    0.21875
  216     -1.05019    0.19000
  217     -1.03577    0.16661
  218     -1.02763    0.15460
  219     -0.89220    0.04233
  220     -0.88255    0.03852
  221     -0.84498    0.02661
  222     -0.70800    0.00683
  223     -0.69886    0.00624
  224     -0.55244    0.00145
  225     -0.54921    0.00140
  226     -0.52169    0.00106
  227     -0.50570    0.00091
  228     -0.48832    0.00076
  229     -0.47001    0.00063
  230     -0.46479    0.00060
  231     -0.44113    0.00048
  232     -0.38447    0.00027
  233     -0.36627    0.00022
  234     -0.34943    0.00019
  235     -0.06489    0.00001
  236      1.33917    0.00000
  237      1.63696    0.00000
  238      1.83720    0.00000
  239      2.60113    0.00000
  240      2.62512    0.00000
  241      2.65557    0.00000
  242      3.05224    0.00000
  243      3.25757    0.00000
  244      3.58325    0.00000
  245      3.96684    0.00000
  246      4.02190    0.00000
  247      4.26234    0.00000
  248      4.86946    0.00000
  249      5.25795    0.00000
  250      5.30962    0.00000
  251      5.32186    0.00000
  252      5.43693    0.00000

Fermi level: -1.27559

Gap: 0.032 eV
Transition (v -> c):
  (s=0, k=0, n=205, [0.00, 0.00, 0.00]) -> (s=0, k=0, n=206, [0.00, 0.00, 0.00])

Forces in eV/Ang:
  0 Rh   -0.05522   -0.01487    0.15650
  1 Rh    0.01367   -0.03668   -0.03212
  2 Rh    0.04159   -0.02594    0.07043
  3 Rh   -0.12675    0.06637   -0.15414
  4 Rh    0.04488   -0.01552   -0.05880
  5 Rh    0.08180    0.10930   -0.27103
  6 Rh   -0.02289    0.07746    0.10519
  7 Rh    0.04680   -0.00469   -0.06841
  8 Rh   -0.03458   -0.13449   -0.26907
  9 Rh   -0.07667    0.08125    0.12858
 10 Rh    0.27449    0.20447   -0.03343
 11 Rh   -0.04810    0.03768   -0.02671
 12 Rh   -0.01706    0.02435    0.07639
 13 Rh   -0.03446   -0.28844   -0.07731
 14 Rh    0.00564   -0.05108    0.07429
 15 Rh   -0.07626   -0.01268    0.07715
 16 Rh    0.05424   -0.03843    0.03543
 17 Rh    0.01845   -0.01278    0.06036
 18 Rh    0.13797   -0.03469   -0.05462
 19 Rh   -0.11069    0.02239   -0.07320
 20 Rh   -0.04650   -0.21674   -0.03160
 21 Rh   -0.20181    0.22949   -0.19909
 22 Rh    0.42589   -0.20860    1.25683
 23 Rh    0.25749    0.16772   -0.05883
 24 Rh   -0.32265   -0.01815   -0.17328
 25 Rh    0.00011    0.04475   -0.07766
 26 Rh    0.22105   -0.13096    0.14972
 27 O    -0.41117    0.29148   -6.76531
 28 C     0.01844   -0.13001    6.11615

System changes: positions 

Initializing position-dependent things.

Density initialized from wave functions
                                           
                                           
                                           
                                           
                                           
                                           
                     O                     
                                           
                    C         Rh           
                Rh Rh  Rh                  
            Rh   Rh     RRh    Rh          
       Rh    RRh    Rh                     
                   Rh     Rh               
        Rh     Rh   RRh    Rh    Rh        
                Rh    Rh                   
                             Rh            
           Rh    Rh     Rh                 
                                           
                                           
                                           
                                           

Positions:
   0 Rh     1.349438    0.769508   12.162821    ( 0.0000,  0.0000,  0.0000)
   1 Rh     4.060107    0.780300   12.172896    ( 0.0000,  0.0000,  0.0000)
   2 Rh     6.775337    0.780253   12.178363    ( 0.0000,  0.0000,  0.0000)
   3 Rh     2.710328    3.124692   12.156621    ( 0.0000,  0.0000,  0.0000)
   4 Rh     5.417196    3.128390   12.173957    ( 0.0000,  0.0000,  0.0000)
   5 Rh     8.119681    3.125517   12.147109    ( 0.0000,  0.0000,  0.0000)
   6 Rh     4.070374    5.482738   12.165155    ( 0.0000,  0.0000,  0.0000)
   7 Rh     6.762676    5.478910   12.162246    ( 0.0000,  0.0000,  0.0000)
   8 Rh     9.478063    5.478134   12.141878    ( 0.0000,  0.0000,  0.0000)
   9 Rh     0.002695    1.569955   14.208544    ( 0.0000,  0.0000,  0.0000)
  10 Rh     2.723641    1.584777   14.196579    ( 0.0000,  0.0000,  0.0000)
  11 Rh     5.413186    1.566469   14.184712    ( 0.0000,  0.0000,  0.0000)
  12 Rh     1.362325    3.900891   14.222835    ( 0.0000,  0.0000,  0.0000)
  13 Rh     4.053698    3.889948   14.185221    ( 0.0000,  0.0000,  0.0000)
  14 Rh     6.772642    3.901974   14.198723    ( 0.0000,  0.0000,  0.0000)
  15 Rh     2.704336    6.250090   14.211783    ( 0.0000,  0.0000,  0.0000)
  16 Rh     5.409117    6.260903   14.216864    ( 0.0000,  0.0000,  0.0000)
  17 Rh     8.128901    6.254127   14.206453    ( 0.0000,  0.0000,  0.0000)
  18 Rh     0.015183   -0.010368   16.246384    ( 0.0000,  0.0000,  0.0000)
  19 Rh     2.691079   -0.028823   16.238249    ( 0.0000,  0.0000,  0.0000)
  20 Rh     5.430163   -0.044663   16.287356    ( 0.0000,  0.0000,  0.0000)
  21 Rh     1.326970    2.356539   16.251505    ( 0.0000,  0.0000,  0.0000)
  22 Rh     4.147320    2.306267   16.582369    ( 0.0000,  0.0000,  0.0000)
  23 Rh     6.798566    2.349332   16.330480    ( 0.0000,  0.0000,  0.0000)
  24 Rh     2.686043    4.708700   16.255575    ( 0.0000,  0.0000,  0.0000)
  25 Rh     5.434322    4.727339   16.244203    ( 0.0000,  0.0000,  0.0000)
  26 Rh     8.120665    4.695464   16.284582    ( 0.0000,  0.0000,  0.0000)
  27 O      5.025770    1.982422   19.454350    ( 0.0000,  0.0000,  0.0000)
  28 C      4.875634    2.058650   18.244088    ( 0.0000,  0.0000,  0.0000)

Unit cell:
           periodic     x           y           z      points  spacing
  1. axis:    yes    8.124657    0.000000    0.000000    36     0.1954
  2. axis:    yes    4.062328    7.036159    0.000000    36     0.1954
  3. axis:    yes    0.000000    0.000000   28.422503   144     0.1974

  Lengths:   8.124657   8.124657  28.422503
  Angles:   90.000000  90.000000  60.000000

Effective grid spacing dv^(1/3) = 0.2057

     iter     time        total  log10-change:
                         energy  eigst   dens
iter:   1 12:57:01  -186.689699  -1.88
iter:   2 12:57:04  -213.444970  -1.28  -1.88
iter:   3 12:57:07  -186.581029  -1.84  -1.31
iter:   4 12:57:09  -185.532669  -2.37  -1.92
iter:   5 12:57:12  -185.441188  -2.67  -2.46
iter:   6 12:57:14  -185.369898c -3.26  -2.45
iter:   7 12:57:16  -185.366912c -3.85  -2.73
iter:   8 12:57:19  -185.354187c -4.41  -2.84
iter:   9 12:57:22  -185.347510c -4.06  -3.08
iter:  10 12:57:24  -185.347963c -4.06  -3.28
iter:  11 12:57:27  -185.344763c -4.64  -3.23
iter:  12 12:57:30  -185.344569c -5.13  -3.39
iter:  13 12:57:32  -185.347546c -5.13  -3.50
iter:  14 12:57:35  -185.344111c -5.01  -3.35
iter:  15 12:57:38  -185.344444c -5.42  -3.43
iter:  16 12:57:40  -185.344555c -6.06  -3.75
iter:  17 12:57:43  -185.344290c -6.23  -3.86
iter:  18 12:57:45  -185.344400c -6.28  -3.74
iter:  19 12:57:48  -185.344658c -6.60  -4.06c
iter:  20 12:57:50  -185.344397c -7.21  -4.27c
iter:  21 12:57:52  -185.344666c -7.00  -4.05c
iter:  22 12:57:55  -185.344831c -6.76  -4.39c
iter:  23 12:57:58  -185.344667c -7.19  -4.31c
iter:  24 12:58:00  -185.344730c -7.49c -4.67c

Converged after 24 iterations.

Dipole moment: (1.341248, 1.797433, -0.378370) |e|*Ang

Energy contributions relative to reference atoms: (reference = -3516703.949422)

Kinetic:        +30.054048
Potential:      -81.450108
External:        +0.000000
XC:            -132.635379
Entropy (-ST):   -2.291228
Local:           -0.167678
--------------------------
Free energy:   -186.490344
Extrapolated:  -185.344730

 Band  Eigenvalues  Occupancy
    0    -48.47588    2.00000
    1    -48.41788    2.00000
    2    -48.38609    2.00000
    3    -48.36047    2.00000
    4    -48.32987    2.00000
    5    -48.30842    2.00000
    6    -48.26629    2.00000
    7    -48.21877    2.00000
    8    -48.21766    2.00000
    9    -48.14460    2.00000
   10    -48.14100    2.00000
   11    -48.13198    2.00000
   12    -48.12124    2.00000
   13    -48.10819    2.00000
   14    -48.10354    2.00000
   15    -48.08805    2.00000
   16    -48.08207    2.00000
   17    -48.07332    2.00000
   18    -48.03423    2.00000
   19    -47.81798    2.00000
   20    -47.81126    2.00000
   21    -47.80248    2.00000
   22    -47.79488    2.00000
   23    -47.78175    2.00000
   24    -47.76829    2.00000
   25    -47.75702    2.00000
   26    -47.70834    2.00000
   27    -47.68771    2.00000
   28    -47.67939    2.00000
   29    -47.67270    2.00000
   30    -47.66758    2.00000
   31    -47.66449    2.00000
   32    -47.64683    2.00000
   33    -47.63986    2.00000
   34    -47.63101    2.00000
   35    -47.62937    2.00000
   36    -47.62277    2.00000
   37    -47.61869    2.00000
   38    -47.60897    2.00000
   39    -47.60161    2.00000
   40    -47.59007    2.00000
   41    -47.58554    2.00000
   42    -47.56973    2.00000
   43    -47.55704    2.00000
   44    -47.54502    2.00000
   45    -47.53349    2.00000
   46    -47.51050    2.00000
   47    -47.50128    2.00000
   48    -47.48296    2.00000
   49    -47.46667    2.00000
   50    -47.45768    2.00000
   51    -47.45339    2.00000
   52    -47.44123    2.00000
   53    -47.42496    2.00000
   54    -47.40466    2.00000
   55    -47.38909    2.00000
   56    -47.38554    2.00000
   57    -47.38127    2.00000
   58    -47.37912    2.00000
   59    -47.37213    2.00000
   60    -47.36837    2.00000
   61    -47.36609    2.00000
   62    -47.36365    2.00000
   63    -47.36069    2.00000
   64    -47.35085    2.00000
   65    -47.34816    2.00000
   66    -47.34206    2.00000
   67    -47.33179    2.00000
   68    -47.32572    2.00000
   69    -47.32386    2.00000
   70    -47.31919    2.00000
   71    -47.31573    2.00000
   72    -47.30402    2.00000
   73    -47.29707    2.00000
   74    -47.28987    2.00000
   75    -47.26614    2.00000
   76    -47.23889    2.00000
   77    -47.23692    2.00000
   78    -47.23152    2.00000
   79    -47.21558    2.00000
   80    -47.20875    2.00000
   81    -23.14821    2.00000
   82    -10.41462    2.00000
   83     -8.31698    2.00000
   84     -7.58825    2.00000
   85     -7.11604    2.00000
   86     -6.96355    2.00000
   87     -6.86292    2.00000
   88     -6.80018    2.00000
   89     -6.78774    2.00000
   90     -6.77846    2.00000
   91     -6.76328    2.00000
   92     -6.74301    2.00000
   93     -6.72992    2.00000
   94     -6.64091    2.00000
   95     -6.54481    2.00000
   96     -6.50578    2.00000
   97     -6.49683    2.00000
   98     -6.43906    2.00000
   99     -6.42400    2.00000
  100     -6.39503    2.00000
  101     -6.36119    2.00000
  102     -6.32449    2.00000
  103     -6.31069    2.00000
  104     -6.25941    2.00000
  105     -6.24477    2.00000
  106     -6.18932    2.00000
  107     -6.08602    2.00000
  108     -6.06644    2.00000
  109     -5.97519    2.00000
  110     -5.95836    2.00000
  111     -5.86321    2.00000
  112     -5.84573    2.00000
  113     -5.63389    2.00000
  114     -5.62423    2.00000
  115     -5.59861    2.00000
  116     -5.58794    2.00000
  117     -5.48499    2.00000
  118     -5.47186    2.00000
  119     -5.12259    2.00000
  120     -5.12067    2.00000
  121     -5.11478    2.00000
  122     -5.03494    2.00000
  123     -4.76234    2.00000
  124     -4.71548    2.00000
  125     -4.70804    2.00000
  126     -4.66170    2.00000
  127     -4.62955    2.00000
  128     -4.58039    2.00000
  129     -4.28725    2.00000
  130     -4.27848    2.00000
  131     -4.17402    2.00000
  132     -4.14587    2.00000
  133     -4.11806    2.00000
  134     -4.11039    2.00000
  135     -4.08240    2.00000
  136     -4.07849    2.00000
  137     -4.07070    2.00000
  138     -4.04563    2.00000
  139     -4.03481    2.00000
  140     -4.02404    2.00000
  141     -4.01016    2.00000
  142     -3.99789    2.00000
  143     -3.99401    2.00000
  144     -3.98897    2.00000
  145     -3.94993    2.00000
  146     -3.90184    2.00000
  147     -3.86322    2.00000
  148     -3.73667    2.00000
  149     -3.69327    2.00000
  150     -3.63014    2.00000
  151     -3.61424    2.00000
  152     -3.59309    2.00000
  153     -3.59105    2.00000
  154     -3.57167    2.00000
  155     -3.56994    2.00000
  156     -3.55121    2.00000
  157     -3.54491    2.00000
  158     -3.53315    2.00000
  159     -3.52570    2.00000
  160     -3.49066    2.00000
  161     -3.48418    2.00000
  162     -3.43423    2.00000
  163     -3.39544    2.00000
  164     -3.20026    2.00000
  165     -2.78595    2.00000
  166     -2.74869    2.00000
  167     -2.73705    2.00000
  168     -2.73381    2.00000
  169     -2.70046    2.00000
  170     -2.56150    2.00000
  171     -2.53863    2.00000
  172     -2.47109    1.99999
  173     -2.45144    1.99999
  174     -2.44165    1.99999
  175     -2.43734    1.99999
  176     -2.40832    1.99998
  177     -2.37157    1.99998
  178     -2.26405    1.99993
  179     -2.24141    1.99992
  180     -2.20112    1.99988
  181     -2.17550    1.99984
  182     -2.16367    1.99982
  183     -2.12363    1.99973
  184     -2.09437    1.99964
  185     -2.07094    1.99955
  186     -2.03837    1.99937
  187     -1.99786    1.99906
  188     -1.95280    1.99853
  189     -1.75724    1.98963
  190     -1.69397    1.98058
  191     -1.62057    1.95995
  192     -1.61688    1.95848
  193     -1.60894    1.95512
  194     -1.56955    1.93417
  195     -1.55912    1.92720
  196     -1.55493    1.92420
  197     -1.52997    1.90374
  198     -1.47335    1.83645
  199     -1.45291    1.80300
  200     -1.44610    1.79057
  201     -1.40830    1.70839
  202     -1.40510    1.70033
  203     -1.33331    1.46916
  204     -1.32424    1.43304
  205     -1.26819    1.18138
  206     -1.23154    1.00016
  207     -1.22718    0.97834
  208     -1.20803    0.88311
  209     -1.20686    0.87739
  210     -1.11388    0.47145
  211     -1.10618    0.44427
  212     -1.09184    0.39668
  213     -1.07775    0.35378
  214     -1.06493    0.31796
  215     -1.01984    0.21497
  216     -1.00216    0.18332
  217     -0.98862    0.16199
  218     -0.97575    0.14384
  219     -0.84274    0.04016
  220     -0.83536    0.03736
  221     -0.79583    0.02531
  222     -0.65732    0.00640
  223     -0.64665    0.00575
  224     -0.50073    0.00134
  225     -0.49646    0.00128
  226     -0.46214    0.00091
  227     -0.44751    0.00079
  228     -0.43467    0.00069
  229     -0.41452    0.00057
  230     -0.40640    0.00052
  231     -0.38462    0.00042
  232     -0.33690    0.00026
  233     -0.31557    0.00021
  234     -0.29750    0.00018
  235     -0.01990    0.00001
  236      1.39766    0.00000
  237      1.80036    0.00000
  238      2.00758    0.00000
  239      2.64774    0.00000
  240      2.67434    0.00000
  241      2.70588    0.00000
  242      3.15280    0.00000
  243      3.34729    0.00000
  244      3.60519    0.00000
  245      3.95239    0.00000
  246      4.05655    0.00000
  247      4.24955    0.00000
  248      4.86071    0.00000
  249      5.29011    0.00000
  250      5.34529    0.00000
  251      5.35174    0.00000
  252      5.42576    0.00000

Fermi level: -1.23151

Gap: 0.004 eV
Transition (v -> c):
  (s=0, k=0, n=206, [0.00, 0.00, 0.00]) -> (s=0, k=0, n=207, [0.00, 0.00, 0.00])

Forces in eV/Ang:
  0 Rh   -0.05355   -0.00701    0.10765
  1 Rh    0.02811   -0.03871   -0.10054
  2 Rh    0.03622   -0.02220   -0.01640
  3 Rh   -0.15235    0.08181   -0.22718
  4 Rh    0.05818   -0.02755   -0.13479
  5 Rh    0.09367    0.12538   -0.32620
  6 Rh   -0.02849    0.07475    0.05013
  7 Rh    0.05584   -0.01501   -0.12286
  8 Rh   -0.03993   -0.15760   -0.31866
  9 Rh   -0.08553    0.07713    0.11059
 10 Rh    0.26493    0.19121   -0.00255
 11 Rh   -0.04747    0.03577    0.01510
 12 Rh   -0.03010    0.03322    0.02801
 13 Rh   -0.02874   -0.27272   -0.03700
 14 Rh    0.01498   -0.04022    0.07041
 15 Rh   -0.07047   -0.00993    0.05078
 16 Rh    0.05493   -0.04105   -0.00198
 17 Rh    0.01309   -0.02404    0.04853
 18 Rh    0.13443   -0.03257    0.02991
 19 Rh   -0.09403    0.06238    0.01640
 20 Rh   -0.09030   -0.20015   -0.00610
 21 Rh   -0.18163    0.21957   -0.09701
 22 Rh    0.39487   -0.19996    0.97114
 23 Rh    0.22876    0.19566   -0.06342
 24 Rh   -0.30062   -0.03098   -0.08590
 25 Rh   -0.03178    0.00888   -0.00138
 26 Rh    0.24888   -0.15087    0.21038
 27 O    -0.14058    0.13810   -4.43885
 28 C    -0.22927   -0.02207    4.12895

System changes: positions 

Initializing position-dependent things.

Density initialized from wave functions
                                           
                                           
                                           
                                           
                                           
                                           
                     O                     
                    C                      
                Rh     Rh     Rh           
                   Rh                      
            Rh   Rh     RRh    Rh          
       Rh    RRh    Rh    Rh               
                   Rh                      
        Rh     Rh   RRh    Rh    Rh        
                Rh    Rh     Rh            
                                           
           Rh    Rh     Rh                 
                                           
                                           
                                           
                                           

Positions:
   0 Rh     1.347267    0.768808   12.172341    ( 0.0000,  0.0000,  0.0000)
   1 Rh     4.061200    0.778351   12.175415    ( 0.0000,  0.0000,  0.0000)
   2 Rh     6.776921    0.779284   12.183886    ( 0.0000,  0.0000,  0.0000)
   3 Rh     2.704077    3.128034   12.153626    ( 0.0000,  0.0000,  0.0000)
   4 Rh     5.419897    3.127542   12.175110    ( 0.0000,  0.0000,  0.0000)
   5 Rh     8.123119    3.130179   12.140373    ( 0.0000,  0.0000,  0.0000)
   6 Rh     4.069615    5.485966   12.172650    ( 0.0000,  0.0000,  0.0000)
   7 Rh     6.764381    5.478507   12.163615    ( 0.0000,  0.0000,  0.0000)
   8 Rh     9.476648    5.472324   12.135338    ( 0.0000,  0.0000,  0.0000)
   9 Rh    -0.000580    1.573302   14.212988    ( 0.0000,  0.0000,  0.0000)
  10 Rh     2.733668    1.592738   14.196762    ( 0.0000,  0.0000,  0.0000)
  11 Rh     5.411408    1.567826   14.185642    ( 0.0000,  0.0000,  0.0000)
  12 Rh     1.361447    3.901820   14.224044    ( 0.0000,  0.0000,  0.0000)
  13 Rh     4.052049    3.879428   14.183587    ( 0.0000,  0.0000,  0.0000)
  14 Rh     6.773645    3.900014   14.201205    ( 0.0000,  0.0000,  0.0000)
  15 Rh     2.701483    6.249471   14.213547    ( 0.0000,  0.0000,  0.0000)
  16 Rh     5.410509    6.259953   14.216171    ( 0.0000,  0.0000,  0.0000)
  17 Rh     8.129830    6.253053   14.208244    ( 0.0000,  0.0000,  0.0000)
  18 Rh     0.020010   -0.011609   16.240936    ( 0.0000,  0.0000,  0.0000)
  19 Rh     2.687142   -0.027763   16.232748    ( 0.0000,  0.0000,  0.0000)
  20 Rh     5.427593   -0.054887   16.281791    ( 0.0000,  0.0000,  0.0000)
  21 Rh     1.319409    2.364963   16.242124    ( 0.0000,  0.0000,  0.0000)
  22 Rh     4.161689    2.298326   16.616053    ( 0.0000,  0.0000,  0.0000)
  23 Rh     6.810141    2.356717   16.323383    ( 0.0000,  0.0000,  0.0000)
  24 Rh     2.674384    4.708153   16.246782    ( 0.0000,  0.0000,  0.0000)
  25 Rh     5.434003    4.729335   16.238061    ( 0.0000,  0.0000,  0.0000)
  26 Rh     8.129776    4.689992   16.287776    ( 0.0000,  0.0000,  0.0000)
  27 O      5.022822    1.985983   19.396055    ( 0.0000,  0.0000,  0.0000)
  28 C      4.861312    2.060882   18.283887    ( 0.0000,  0.0000,  0.0000)

Unit cell:
           periodic     x           y           z      points  spacing
  1. axis:    yes    8.124657    0.000000    0.000000    36     0.1954
  2. axis:    yes    4.062328    7.036159    0.000000    36     0.1954
  3. axis:    yes    0.000000    0.000000   28.422503   144     0.1974

  Lengths:   8.124657   8.124657  28.422503
  Angles:   90.000000  90.000000  60.000000

Effective grid spacing dv^(1/3) = 0.2057

     iter     time        total  log10-change:
                         energy  eigst   dens
iter:   1 12:58:09  -194.919794  -1.27
iter:   2 12:58:12  -286.684194  -0.38  -1.47
iter:   3 12:58:14  -197.746829  -1.19  -1.10
iter:   4 12:58:17  -186.970836  -1.52  -1.53
iter:   5 12:58:19  -186.272655  -2.02  -2.00
iter:   6 12:58:22  -187.832560  -2.01  -2.07
iter:   7 12:58:24  -186.999616  -2.25  -1.74
iter:   8 12:58:27  -185.596243  -2.61  -1.88
iter:   9 12:58:29  -185.607777  -3.50  -2.60
iter:  10 12:58:32  -185.559917c -3.85  -2.50
iter:  11 12:58:34  -185.519698c -3.38  -2.67
iter:  12 12:58:37  -185.538903c -3.60  -2.90
iter:  13 12:58:40  -185.506838c -3.85  -2.69
iter:  14 12:58:42  -185.505220c -4.41  -3.12
iter:  15 12:58:45  -185.505017c -4.47  -3.20
iter:  16 12:58:47  -185.502448c -4.48  -3.33
iter:  17 12:58:50  -185.503181c -4.99  -3.23
iter:  18 12:58:52  -185.503424c -5.29  -3.54
iter:  19 12:58:54  -185.502629c -5.56  -3.65
iter:  20 12:58:57  -185.503325c -5.71  -3.51
iter:  21 12:59:00  -185.503063c -6.16  -3.80
iter:  22 12:59:02  -185.502474c -5.99  -3.90
iter:  23 12:59:04  -185.503249c -6.37  -3.84
iter:  24 12:59:07  -185.502801c -6.26  -4.00c
iter:  25 12:59:10  -185.502597c -6.59  -4.14c
iter:  26 12:59:12  -185.503053c -6.65  -3.94
iter:  27 12:59:15  -185.502945c -6.96  -4.07c
iter:  28 12:59:18  -185.502856c -7.01  -4.35c
iter:  29 12:59:20  -185.503181c -7.12  -4.36c
iter:  30 12:59:23  -185.502998c -7.61c -4.39c

Converged after 30 iterations.

Dipole moment: (1.983464, 2.066591, -0.249996) |e|*Ang

Energy contributions relative to reference atoms: (reference = -3516703.949422)

Kinetic:        +43.678727
Potential:      -92.540311
External:        +0.000000
XC:            -135.311192
Entropy (-ST):   -2.266427
Local:           -0.197009
--------------------------
Free energy:   -186.636212
Extrapolated:  -185.502998

 Band  Eigenvalues  Occupancy
    0    -48.37547    2.00000
    1    -48.32215    2.00000
    2    -48.29134    2.00000
    3    -48.26955    2.00000
    4    -48.23082    2.00000
    5    -48.20575    2.00000
    6    -48.16001    2.00000
    7    -48.11210    2.00000
    8    -48.10812    2.00000
    9    -48.05055    2.00000
   10    -48.04227    2.00000
   11    -48.02738    2.00000
   12    -48.01487    2.00000
   13    -48.00445    2.00000
   14    -47.99673    2.00000
   15    -47.98347    2.00000
   16    -47.97369    2.00000
   17    -47.96653    2.00000
   18    -47.93804    2.00000
   19    -47.70751    2.00000
   20    -47.70092    2.00000
   21    -47.68853    2.00000
   22    -47.68000    2.00000
   23    -47.66578    2.00000
   24    -47.66403    2.00000
   25    -47.65322    2.00000
   26    -47.60635    2.00000
   27    -47.59357    2.00000
   28    -47.58934    2.00000
   29    -47.56889    2.00000
   30    -47.56509    2.00000
   31    -47.56345    2.00000
   32    -47.55102    2.00000
   33    -47.53869    2.00000
   34    -47.52168    2.00000
   35    -47.51975    2.00000
   36    -47.51567    2.00000
   37    -47.51134    2.00000
   38    -47.50630    2.00000
   39    -47.49307    2.00000
   40    -47.49054    2.00000
   41    -47.47586    2.00000
   42    -47.46168    2.00000
   43    -47.45051    2.00000
   44    -47.43862    2.00000
   45    -47.43482    2.00000
   46    -47.40669    2.00000
   47    -47.38256    2.00000
   48    -47.37476    2.00000
   49    -47.36005    2.00000
   50    -47.35504    2.00000
   51    -47.34882    2.00000
   52    -47.33691    2.00000
   53    -47.32121    2.00000
   54    -47.30068    2.00000
   55    -47.29015    2.00000
   56    -47.28687    2.00000
   57    -47.28454    2.00000
   58    -47.27452    2.00000
   59    -47.26492    2.00000
   60    -47.26054    2.00000
   61    -47.25985    2.00000
   62    -47.25735    2.00000
   63    -47.25465    2.00000
   64    -47.24722    2.00000
   65    -47.24199    2.00000
   66    -47.22982    2.00000
   67    -47.22693    2.00000
   68    -47.22127    2.00000
   69    -47.21889    2.00000
   70    -47.21399    2.00000
   71    -47.21286    2.00000
   72    -47.20468    2.00000
   73    -47.18926    2.00000
   74    -47.17742    2.00000
   75    -47.15493    2.00000
   76    -47.14609    2.00000
   77    -47.12818    2.00000
   78    -47.12366    2.00000
   79    -47.08009    2.00000
   80    -47.07921    2.00000
   81    -24.78616    2.00000
   82    -10.28011    2.00000
   83     -8.27923    2.00000
   84     -7.90867    2.00000
   85     -7.77843    2.00000
   86     -7.72139    2.00000
   87     -7.00083    2.00000
   88     -6.71589    2.00000
   89     -6.69956    2.00000
   90     -6.69458    2.00000
   91     -6.67305    2.00000
   92     -6.64646    2.00000
   93     -6.64037    2.00000
   94     -6.59906    2.00000
   95     -6.46096    2.00000
   96     -6.41423    2.00000
   97     -6.41060    2.00000
   98     -6.34978    2.00000
   99     -6.34642    2.00000
  100     -6.31853    2.00000
  101     -6.25942    2.00000
  102     -6.22588    2.00000
  103     -6.21025    2.00000
  104     -6.17614    2.00000
  105     -6.15377    2.00000
  106     -6.09206    2.00000
  107     -5.98195    2.00000
  108     -5.97693    2.00000
  109     -5.88363    2.00000
  110     -5.87374    2.00000
  111     -5.77098    2.00000
  112     -5.73673    2.00000
  113     -5.53633    2.00000
  114     -5.53147    2.00000
  115     -5.51575    2.00000
  116     -5.48032    2.00000
  117     -5.37326    2.00000
  118     -5.36337    2.00000
  119     -5.02788    2.00000
  120     -5.01985    2.00000
  121     -5.01479    2.00000
  122     -4.94053    2.00000
  123     -4.67813    2.00000
  124     -4.62390    2.00000
  125     -4.61457    2.00000
  126     -4.56961    2.00000
  127     -4.52707    2.00000
  128     -4.48482    2.00000
  129     -4.19119    2.00000
  130     -4.17973    2.00000
  131     -4.08424    2.00000
  132     -4.05503    2.00000
  133     -4.03617    2.00000
  134     -4.02343    2.00000
  135     -3.98592    2.00000
  136     -3.97976    2.00000
  137     -3.95882    2.00000
  138     -3.94383    2.00000
  139     -3.92935    2.00000
  140     -3.92629    2.00000
  141     -3.91356    2.00000
  142     -3.90189    2.00000
  143     -3.89312    2.00000
  144     -3.88852    2.00000
  145     -3.84153    2.00000
  146     -3.77969    2.00000
  147     -3.75413    2.00000
  148     -3.64660    2.00000
  149     -3.60307    2.00000
  150     -3.52655    2.00000
  151     -3.50396    2.00000
  152     -3.49891    2.00000
  153     -3.48958    2.00000
  154     -3.47148    2.00000
  155     -3.46269    2.00000
  156     -3.45344    2.00000
  157     -3.44234    2.00000
  158     -3.42903    2.00000
  159     -3.41728    2.00000
  160     -3.39250    2.00000
  161     -3.37849    2.00000
  162     -3.31481    2.00000
  163     -3.27353    2.00000
  164     -3.08593    2.00000
  165     -2.67494    2.00000
  166     -2.65263    2.00000
  167     -2.63744    2.00000
  168     -2.62989    2.00000
  169     -2.59742    2.00000
  170     -2.46820    2.00000
  171     -2.45184    2.00000
  172     -2.39224    1.99999
  173     -2.35416    1.99999
  174     -2.34482    1.99999
  175     -2.33674    1.99999
  176     -2.30347    1.99998
  177     -2.27251    1.99998
  178     -2.16972    1.99994
  179     -2.14308    1.99992
  180     -2.09147    1.99987
  181     -2.07076    1.99985
  182     -2.06262    1.99983
  183     -2.01145    1.99972
  184     -1.97939    1.99961
  185     -1.96133    1.99954
  186     -1.92364    1.99933
  187     -1.88665    1.99903
  188     -1.85451    1.99866
  189     -1.66211    1.99083
  190     -1.60088    1.98315
  191     -1.53471    1.96760
  192     -1.52798    1.96539
  193     -1.51647    1.96125
  194     -1.47049    1.93931
  195     -1.45614    1.93027
  196     -1.44497    1.92235
  197     -1.42068    1.90205
  198     -1.36533    1.83558
  199     -1.34089    1.79473
  200     -1.33783    1.78903
  201     -1.29447    1.69214
  202     -1.28986    1.67993
  203     -1.23556    1.50613
  204     -1.22813    1.47798
  205     -1.17351    1.24235
  206     -1.12124    0.98590
  207     -1.11565    0.95800
  208     -1.09611    0.86114
  209     -1.08805    0.82187
  210     -1.00898    0.48071
  211     -1.00410    0.46311
  212     -0.98683    0.40451
  213     -0.97181    0.35819
  214     -0.95583    0.31359
  215     -0.91009    0.21060
  216     -0.88729    0.17133
  217     -0.87742    0.15650
  218     -0.84858    0.11963
  219     -0.73251    0.03908
  220     -0.72569    0.03656
  221     -0.69038    0.02582
  222     -0.54492    0.00609
  223     -0.53102    0.00530
  224     -0.39651    0.00138
  225     -0.38779    0.00127
  226     -0.33260    0.00073
  227     -0.32717    0.00069
  228     -0.31898    0.00064
  229     -0.30216    0.00054
  230     -0.28686    0.00046
  231     -0.26905    0.00039
  232     -0.23446    0.00027
  233     -0.20547    0.00020
  234     -0.18546    0.00017
  235      0.06716    0.00001
  236      1.49100    0.00000
  237      2.15401    0.00000
  238      2.32969    0.00000
  239      2.74090    0.00000
  240      2.77384    0.00000
  241      2.80586    0.00000
  242      3.44554    0.00000
  243      3.58858    0.00000
  244      3.64873    0.00000
  245      3.87379    0.00000
  246      4.13744    0.00000
  247      4.22245    0.00000
  248      4.82737    0.00000
  249      5.34975    0.00000
  250      5.37411    0.00000
  251      5.40558    0.00000
  252      5.41725    0.00000

Fermi level: -1.12406

Gap: 0.052 eV
Transition (v -> c):
  (s=0, k=0, n=205, [0.00, 0.00, 0.00]) -> (s=0, k=0, n=206, [0.00, 0.00, 0.00])

Forces in eV/Ang:
  0 Rh   -0.03758    0.00266    0.08751
  1 Rh    0.06204   -0.02009   -0.10119
  2 Rh    0.01137   -0.00100   -0.05778
  3 Rh   -0.19533    0.10488   -0.26127
  4 Rh    0.07671   -0.07053   -0.14003
  5 Rh    0.11503    0.16224   -0.33129
  6 Rh   -0.02684    0.06345    0.02955
  7 Rh    0.06546   -0.03534   -0.13798
  8 Rh   -0.05459   -0.20871   -0.31710
  9 Rh   -0.09198    0.05203    0.02939
 10 Rh    0.21028    0.14642    0.03058
 11 Rh   -0.02967    0.02322    0.04863
 12 Rh   -0.05382    0.04194   -0.10424
 13 Rh   -0.01830   -0.20461    0.00801
 14 Rh    0.03977    0.00967    0.02708
 15 Rh   -0.04705   -0.00163   -0.02179
 16 Rh    0.05756   -0.04557   -0.06739
 17 Rh   -0.02010   -0.06145    0.00492
 18 Rh    0.16287   -0.05376    0.08611
 19 Rh   -0.06279    0.16695    0.07546
 20 Rh   -0.22801   -0.15418    0.02091
 21 Rh   -0.14906    0.15188    0.06291
 22 Rh    0.41697   -0.21303    0.49395
 23 Rh    0.09961    0.27988   -0.07993
 24 Rh   -0.21367   -0.01174    0.04649
 25 Rh   -0.13102   -0.06787    0.05235
 26 Rh    0.32292   -0.19854    0.26806
 27 O     1.01909   -0.40009    4.01746
 28 C    -1.29091    0.47234   -3.78799

System changes: positions 

Initializing position-dependent things.

Density initialized from wave functions
                                           
                                           
                                           
                                           
                                           
                                           
                     O                     
                                           
                Rh  C  Rh     Rh           
                   Rh                      
            Rh   Rh     RRh    Rh          
       Rh    RRh    Rh    Rh               
                   Rh                      
        Rh     Rh   RRh    Rh    Rh        
                Rh    Rh     Rh            
                                           
           Rh    Rh     Rh                 
                                           
                                           
                                           
                                           

Positions:
   0 Rh     1.346872    0.768107   12.179355    ( 0.0000,  0.0000,  0.0000)
   1 Rh     4.061440    0.778378   12.182131    ( 0.0000,  0.0000,  0.0000)
   2 Rh     6.777153    0.779292   12.191095    ( 0.0000,  0.0000,  0.0000)
   3 Rh     2.703331    3.128340   12.158534    ( 0.0000,  0.0000,  0.0000)
   4 Rh     5.420213    3.127084   12.181735    ( 0.0000,  0.0000,  0.0000)
   5 Rh     8.123397    3.130961   12.144381    ( 0.0000,  0.0000,  0.0000)
   6 Rh     4.069983    5.486815   12.179526    ( 0.0000,  0.0000,  0.0000)
   7 Rh     6.764272    5.478674   12.169416    ( 0.0000,  0.0000,  0.0000)
   8 Rh     9.476265    5.471535   12.139087    ( 0.0000,  0.0000,  0.0000)
   9 Rh    -0.000813    1.573763   14.212537    ( 0.0000,  0.0000,  0.0000)
  10 Rh     2.735506    1.594525   14.195875    ( 0.0000,  0.0000,  0.0000)
  11 Rh     5.411110    1.568085   14.183959    ( 0.0000,  0.0000,  0.0000)
  12 Rh     1.361625    3.901560   14.223856    ( 0.0000,  0.0000,  0.0000)
  13 Rh     4.051556    3.877467   14.181980    ( 0.0000,  0.0000,  0.0000)
  14 Rh     6.773937    3.899887   14.200318    ( 0.0000,  0.0000,  0.0000)
[...]

Memory estimate:
  Process memory now: 312.48 MiB
  Calculator: 38.29 MiB
    Density: 6.82 MiB
      Arrays: 1.24 MiB
      Localized functions: 5.10 MiB
      Mixer: 0.48 MiB
    Hamiltonian: 1.22 MiB
      Arrays: 0.81 MiB
      XC: 0.00 MiB
      Poisson: 0.00 MiB
      vbar: 0.41 MiB
    Wavefunctions: 30.26 MiB
      Arrays psit_nG: 12.09 MiB
      Eigensolver: 17.22 MiB
      Projections: 0.03 MiB
      Projectors: 0.91 MiB

Total number of cores used: 30
Domain decomposition: 3 x 2 x 5

Number of atoms: 29
Number of atomic orbitals: 332
Number of bands in calculation: 253
Number of valence electrons: 415
Bands to converge: occupied

... initialized

Initializing position-dependent things.

Density initialized from atomic densities
Creating initial wave functions:
  253 bands from LCAO basis set

                                             
                                             
                                             
                                             
                                             
                                             
                                             
                      O                      
                      C                      
                 Rh           Rh             
                  Rh  Rh Rh                  
            Rh          Rh Rh   Rh           
        Rh   Rh     Rh                       
              RhRh  RhRh                     
        Rh           Rh    Rh      Rh        
                        Rh    Rh             
                Rh                           
             Rh    Rh   Rh                   
                                             
                                             
                                             
                                             
                                             

Positions:
   0 Rh     1.902905    0.684392   12.141120    ( 0.0000,  0.0000,  0.0000)
   1 Rh     4.352953    1.150220   11.381584    ( 0.0000,  0.0000,  0.0000)
   2 Rh     6.724372    0.587054   11.969296    ( 0.0000,  0.0000,  0.0000)
   3 Rh     2.712720    3.014994   11.692536    ( 0.0000,  0.0000,  0.0000)
   4 Rh     5.813107    2.835354   12.691334    ( 0.0000,  0.0000,  0.0000)
   5 Rh     8.244474    3.323774   11.985075    ( 0.0000,  0.0000,  0.0000)
   6 Rh     4.167673    5.696711   11.572706    ( 0.0000,  0.0000,  0.0000)
   7 Rh     6.554950    5.221976   11.996642    ( 0.0000,  0.0000,  0.0000)
   8 Rh     9.838153    5.256059   12.287711    ( 0.0000,  0.0000,  0.0000)
   9 Rh    -0.124381    1.668907   13.855439    ( 0.0000,  0.0000,  0.0000)
  10 Rh     2.880427    1.947531   14.220313    ( 0.0000,  0.0000,  0.0000)
  11 Rh     5.389927    1.831092   14.981198    ( 0.0000,  0.0000,  0.0000)
  12 Rh     1.137738    3.818852   14.377999    ( 0.0000,  0.0000,  0.0000)
  13 Rh     3.771062    4.231432   13.692981    ( 0.0000,  0.0000,  0.0000)
  14 Rh     6.892816    4.623762   14.513726    ( 0.0000,  0.0000,  0.0000)
  15 Rh     2.458473    6.564979   14.420729    ( 0.0000,  0.0000,  0.0000)
  16 Rh     4.980934    6.373537   14.020097    ( 0.0000,  0.0000,  0.0000)
  17 Rh     8.137521    6.765488   13.485921    ( 0.0000,  0.0000,  0.0000)
  18 Rh     0.133484   -0.360407   16.480952    ( 0.0000,  0.0000,  0.0000)
  19 Rh     2.617539   -0.063979   15.779201    ( 0.0000,  0.0000,  0.0000)
  20 Rh     4.965510   -0.319426   16.385230    ( 0.0000,  0.0000,  0.0000)
  21 Rh     1.077992    1.971147   16.238318    ( 0.0000,  0.0000,  0.0000)
  22 Rh     3.856491    2.023333   17.119666    ( 0.0000,  0.0000,  0.0000)
  23 Rh     6.688584    2.229123   17.081538    ( 0.0000,  0.0000,  0.0000)
  24 Rh     2.568874    4.781802   16.256766    ( 0.0000,  0.0000,  0.0000)
  25 Rh     4.950871    4.099500   16.058519    ( 0.0000,  0.0000,  0.0000)
  26 Rh     8.158858    4.295918   16.670932    ( 0.0000,  0.0000,  0.0000)
  27 O      5.293198    2.102822   19.683024    ( 0.0000,  0.0000,  0.0000)
  28 C      5.264858    2.108225   18.502728    ( 0.0000,  0.0000,  0.0000)

Unit cell:
           periodic     x           y           z      points  spacing
  1. axis:    yes    8.124657    0.000000    0.000000    36     0.1954
  2. axis:    yes    4.062328    7.036159    0.000000    36     0.1954
  3. axis:    yes    0.000000    0.000000   28.422503   144     0.1974

  Lengths:   8.124657   8.124657  28.422503
  Angles:   90.000000  90.000000  60.000000

Effective grid spacing dv^(1/3) = 0.2057

     iter     time        total  log10-change:
                         energy  eigst   dens
iter:   1 15:45:58  -205.637735
iter:   2 15:46:01  -204.141282  -0.48  -1.36
iter:   3 15:46:03  -205.157891  -1.09  -1.37
iter:   4 15:46:05  -197.963062  -1.18  -1.35
iter:   5 15:46:08  -193.823868  -1.27  -1.49
iter:   6 15:46:10  -192.811660  -1.48  -1.69
iter:   7 15:46:12  -192.640205  -1.53  -1.88
iter:   8 15:46:15  -192.652643c -2.22  -2.10
iter:   9 15:46:17  -192.539028c -2.39  -2.12
iter:  10 15:46:19  -192.491762c -2.30  -2.23
iter:  11 15:46:22  -192.414563c -2.35  -2.32
iter:  12 15:46:24  -192.386685c -2.88  -2.53
iter:  13 15:46:26  -192.374160c -2.90  -2.65
iter:  14 15:46:29  -192.372816c -3.09  -2.83
iter:  15 15:46:31  -192.373757c -3.35  -2.94
iter:  16 15:46:34  -192.373127c -3.42  -3.00
iter:  17 15:46:36  -192.376363c -3.69  -3.12
iter:  18 15:46:39  -192.374646c -3.95  -3.19
iter:  19 15:46:41  -192.374491c -4.32  -3.25
iter:  20 15:46:43  -192.374579c -4.64  -3.35
iter:  21 15:46:46  -192.374560c -4.84  -3.44
iter:  22 15:46:48  -192.374123c -5.13  -3.62
iter:  23 15:46:50  -192.374612c -5.40  -3.76
iter:  24 15:46:53  -192.374039c -5.74  -3.77
iter:  25 15:46:55  -192.374245c -5.94  -3.88
iter:  26 15:46:57  -192.374115c -5.89  -3.91
iter:  27 15:47:00  -192.374047c -6.14  -4.05c
iter:  28 15:47:02  -192.373913c -6.47  -4.15c
iter:  29 15:47:04  -192.374018c -6.62  -4.18c
iter:  30 15:47:07  -192.373867c -6.52  -4.27c
iter:  31 15:47:09  -192.373962c -6.66  -4.36c
iter:  32 15:47:12  -192.373901c -6.97  -4.40c
iter:  33 15:47:14  -192.373934c -6.96  -4.42c
iter:  34 15:47:16  -192.373951c -7.06  -4.47c
iter:  35 15:47:18  -192.373989c -7.33  -4.60c
iter:  36 15:47:21  -192.373956c -7.57c -4.68c

Converged after 36 iterations.

Dipole moment: (11.080573, 29.651835, -0.303362) |e|*Ang

Energy contributions relative to reference atoms: (reference = -3516703.949422)

Kinetic:        -68.327505
Potential:       -0.969503
External:        +0.000000
XC:            -121.814110
Entropy (-ST):   -1.580842
Local:           -0.472417
--------------------------
Free energy:   -193.164377
Extrapolated:  -192.373956

 Band  Eigenvalues  Occupancy
    0    -48.43760    2.00000
    1    -48.35988    2.00000
    2    -48.31325    2.00000
    3    -48.28551    2.00000
    4    -48.27275    2.00000
    5    -48.23639    2.00000
    6    -48.21671    2.00000
    7    -48.18433    2.00000
    8    -48.15032    2.00000
    9    -48.12905    2.00000
   10    -48.11694    2.00000
   11    -48.11094    2.00000
   12    -48.09949    2.00000
   13    -48.08106    2.00000
   14    -48.05482    2.00000
   15    -48.02288    2.00000
   16    -48.00324    2.00000
   17    -47.99561    2.00000
   18    -47.96758    2.00000
   19    -47.95490    2.00000
   20    -47.94895    2.00000
   21    -47.92410    2.00000
   22    -47.91100    2.00000
   23    -47.89148    2.00000
   24    -47.88327    2.00000
   25    -47.87152    2.00000
   26    -47.84657    2.00000
   27    -47.84446    2.00000
   28    -47.83712    2.00000
   29    -47.79932    2.00000
   30    -47.78259    2.00000
   31    -47.75926    2.00000
   32    -47.74497    2.00000
   33    -47.73372    2.00000
   34    -47.72665    2.00000
   35    -47.70188    2.00000
   36    -47.69119    2.00000
   37    -47.66193    2.00000
   38    -47.63899    2.00000
   39    -47.63304    2.00000
   40    -47.61890    2.00000
   41    -47.61773    2.00000
   42    -47.60491    2.00000
   43    -47.58800    2.00000
   44    -47.58316    2.00000
   45    -47.57858    2.00000
   46    -47.57282    2.00000
   47    -47.56120    2.00000
   48    -47.54125    2.00000
   49    -47.53514    2.00000
   50    -47.51626    2.00000
   51    -47.51535    2.00000
   52    -47.50136    2.00000
   53    -47.48936    2.00000
   54    -47.48401    2.00000
   55    -47.47686    2.00000
   56    -47.44219    2.00000
   57    -47.44077    2.00000
   58    -47.43448    2.00000
   59    -47.41431    2.00000
   60    -47.40692    2.00000
   61    -47.38516    2.00000
   62    -47.38351    2.00000
   63    -47.37904    2.00000
   64    -47.36655    2.00000
   65    -47.36080    2.00000
   66    -47.33957    2.00000
   67    -47.33009    2.00000
   68    -47.31569    2.00000
   69    -47.30269    2.00000
   70    -47.29999    2.00000
   71    -47.27246    2.00000
   72    -47.26525    2.00000
   73    -47.25262    2.00000
   74    -47.23634    2.00000
   75    -47.22401    2.00000
   76    -47.21945    2.00000
   77    -47.17485    2.00000
   78    -47.16769    2.00000
   79    -47.14751    2.00000
   80    -47.04850    2.00000
   81    -23.68816    2.00000
   82    -10.56182    2.00000
   83     -8.04885    2.00000
   84     -7.69553    2.00000
   85     -7.45898    2.00000
   86     -7.11846    2.00000
   87     -6.71866    2.00000
   88     -6.71213    2.00000
   89     -6.63297    2.00000
   90     -6.62553    2.00000
   91     -6.59897    2.00000
   92     -6.50100    2.00000
   93     -6.46565    2.00000
   94     -6.40601    2.00000
   95     -6.36434    2.00000
   96     -6.30260    2.00000
   97     -6.28465    2.00000
   98     -6.21967    2.00000
   99     -6.18945    2.00000
  100     -6.14359    2.00000
  101     -6.07577    2.00000
  102     -6.02947    2.00000
  103     -6.00481    2.00000
  104     -5.87003    2.00000
  105     -5.84374    2.00000
  106     -5.81907    2.00000
  107     -5.76649    2.00000
  108     -5.69255    2.00000
  109     -5.68867    2.00000
  110     -5.62465    2.00000
  111     -5.56746    2.00000
  112     -5.48593    2.00000
  113     -5.44261    2.00000
  114     -5.40651    2.00000
  115     -5.32779    2.00000
  116     -5.32062    2.00000
  117     -5.26779    2.00000
  118     -5.18835    2.00000
  119     -5.10475    2.00000
  120     -5.01761    2.00000
  121     -4.94744    2.00000
  122     -4.91841    2.00000
  123     -4.91053    2.00000
  124     -4.82011    2.00000
  125     -4.79850    2.00000
  126     -4.77122    2.00000
  127     -4.76425    2.00000
  128     -4.67839    2.00000
  129     -4.64965    2.00000
  130     -4.60990    2.00000
  131     -4.51674    2.00000
  132     -4.47581    2.00000
  133     -4.42504    2.00000
  134     -4.35539    2.00000
  135     -4.31197    2.00000
  136     -4.26531    2.00000
  137     -4.21302    2.00000
  138     -4.16717    2.00000
  139     -4.12404    2.00000
  140     -4.08988    2.00000
  141     -4.04956    2.00000
  142     -3.97995    2.00000
  143     -3.93534    2.00000
  144     -3.90127    2.00000
  145     -3.87484    2.00000
  146     -3.84570    2.00000
  147     -3.83414    2.00000
  148     -3.78225    2.00000
  149     -3.70907    2.00000
  150     -3.68949    2.00000
  151     -3.65798    2.00000
  152     -3.60901    2.00000
  153     -3.56826    2.00000
  154     -3.52723    2.00000
  155     -3.44538    2.00000
  156     -3.41182    2.00000
  157     -3.37765    2.00000
  158     -3.35220    2.00000
  159     -3.27367    2.00000
  160     -3.24417    2.00000
  161     -3.19260    2.00000
  162     -3.17879    2.00000
  163     -3.16152    2.00000
  164     -3.09294    2.00000
  165     -3.07401    2.00000
  166     -3.06302    2.00000
  167     -2.97448    2.00000
  168     -2.93006    2.00000
  169     -2.88179    2.00000
  170     -2.84781    2.00000
  171     -2.81886    2.00000
  172     -2.77982    2.00000
  173     -2.72397    2.00000
  174     -2.69830    2.00000
  175     -2.65617    2.00000
  176     -2.60428    2.00000
  177     -2.52363    1.99999
  178     -2.50857    1.99999
  179     -2.45041    1.99999
  180     -2.39352    1.99998
  181     -2.33983    1.99996
  182     -2.33538    1.99996
  183     -2.28267    1.99993
  184     -2.26198    1.99991
  185     -2.22941    1.99987
  186     -2.16364    1.99976
  187     -2.13463    1.99968
  188     -2.09674    1.99953
  189     -2.05820    1.99930
  190     -1.97647    1.99842
  191     -1.93994    1.99773
  192     -1.86761    1.99532
  193     -1.83142    1.99328
  194     -1.76621    1.98715
  195     -1.76304    1.98674
  196     -1.70616    1.97669
  197     -1.69236    1.97329
  198     -1.64669    1.95815
  199     -1.57040    1.91236
  200     -1.53768    1.88046
  201     -1.52212    1.86173
  202     -1.48186    1.80004
  203     -1.46808    1.77385
  204     -1.40586    1.61611
  205     -1.35201    1.42149
  206     -1.30581    1.21505
  207     -1.23262    0.85358
  208     -1.18375    0.62706
  209     -1.16109    0.53385
  210     -1.13569    0.44049
  211     -1.11675    0.37887
  212     -1.06677    0.24835
  213     -1.03956    0.19496
  214     -1.00271    0.13905
  215     -0.93595    0.07382
  216     -0.91969    0.06309
  217     -0.88247    0.04392
  218     -0.79428    0.01842
  219     -0.77947    0.01590
  220     -0.71301    0.00821
  221     -0.68303    0.00609
  222     -0.61024    0.00295
  223     -0.59663    0.00257
  224     -0.53893    0.00145
  225     -0.46322    0.00068
  226     -0.44474    0.00056
  227     -0.34683    0.00021
  228     -0.32398    0.00017
  229     -0.18789    0.00004
  230     -0.09498    0.00002
  231      0.07608    0.00000
  232      0.13657    0.00000
  233      0.21496    0.00000
  234      0.29704    0.00000
  235      0.67050    0.00000
  236      1.35135    0.00000
  237      1.56096    0.00000
  238      1.74522    0.00000
  239      2.16084    0.00000
  240      2.41707    0.00000
  241      2.52266    0.00000
  242      3.01584    0.00000
  243      3.06463    0.00000
  244      3.15566    0.00000
  245      3.61619    0.00000
  246      3.93969    0.00000
  247      4.25752    0.00000
  248      4.49651    0.00000
  249      4.59331    0.00000
  250      4.83924    0.00000
  251      4.92865    0.00000
  252      5.23667    0.00000

Fermi level: -1.26211

Gap: 0.073 eV
Transition (v -> c):
  (s=0, k=0, n=206, [0.00, 0.00, 0.00]) -> (s=0, k=0, n=207, [0.00, 0.00, 0.00])
Timing:                                      incl.     excl.
-------------------------------------------------------------------
Density initialized from wave functions:     1.553     1.550   0.0% |
 Symmetrize density:                         0.003     0.003   0.0% |
Forces:                                    477.731   477.731   4.6% |-|
Hamiltonian:                                24.970     0.015   0.0% |
 Atomic:                                     0.043     0.042   0.0% |
  XC Correction:                             0.001     0.001   0.0% |
 Calculate atomic Hamiltonians:              0.042     0.042   0.0% |
 Communicate:                               12.846    12.846   0.1% |
 Hartree integrate/restrict:                 0.331     0.331   0.0% |
 Initialize Hamiltonian:                     0.000     0.000   0.0% |
 Poisson:                                    7.089     0.129   0.0% |
  Communicate from 1D:                       1.705     1.705   0.0% |
  Communicate from 2D:                       1.947     1.947   0.0% |
  Communicate to 1D:                         1.162     1.162   0.0% |
  Communicate to 2D:                         1.545     1.545   0.0% |
  FFT 1D:                                    0.179     0.179   0.0% |
  FFT 2D:                                    0.422     0.422   0.0% |
 XC 3D grid:                                 4.568     4.568   0.0% |
 vbar:                                       0.037     0.037   0.0% |
LCAO initialization:                         2.830     0.815   0.0% |
 LCAO eigensolver:                           1.420     0.001   0.0% |
  Calculate projections:                     0.000     0.000   0.0% |
  DenseAtomicCorrection:                     0.000     0.000   0.0% |
  Distribute overlap matrix:                 1.331     1.331   0.0% |
  Orbital Layouts:                           0.087     0.087   0.0% |
  Potential matrix:                          0.000     0.000   0.0% |
 LCAO to grid:                               0.008     0.008   0.0% |
 Set positions (LCAO WFS):                   0.587     0.450   0.0% |
  Basic WFS set positions:                   0.003     0.003   0.0% |
  Basis functions set positions:             0.000     0.000   0.0% |
  P tci:                                     0.001     0.001   0.0% |
  ST tci:                                    0.038     0.038   0.0% |
  mktci:                                     0.095     0.095   0.0% |
Redistribute:                                0.080     0.080   0.0% |
SCF-cycle:                                9363.521     4.652   0.0% |
 Davidson:                                8730.170  3786.469  36.1% |-------------|
  Apply hamiltonian:                       276.356   276.356   2.6% ||
  Subspace diag:                           586.406     0.414   0.0% |
   calc_h_matrix:                          356.094    98.512   0.9% |
    Apply hamiltonian:                     257.582   257.582   2.5% ||
   diagonalize:                             62.311    62.311   0.6% |
   rotate_psi:                             167.588   167.588   1.6% ||
  calc. matrices:                         3264.122   677.780   6.5% |--|
   Apply hamiltonian:                     2586.342  2586.342  24.7% |---------|
  diagonalize:                             489.790   489.790   4.7% |-|
  rotate_psi:                              327.027   327.027   3.1% ||
 Density:                                   34.320     0.075   0.0% |
  Atomic density matrices:                   9.260     9.260   0.1% |
  Mix:                                      14.521    14.521   0.1% |
  Multipole moments:                         1.022     1.022   0.0% |
  Pseudo density:                            9.443     9.387   0.1% |
   Symmetrize density:                       0.056     0.056   0.0% |
 Hamiltonian:                              537.063     0.297   0.0% |
  Atomic:                                    0.866     0.852   0.0% |
   XC Correction:                            0.014     0.014   0.0% |
  Calculate atomic Hamiltonians:             0.886     0.886   0.0% |
  Communicate:                             276.081   276.081   2.6% ||
  Hartree integrate/restrict:                7.028     7.028   0.1% |
  Poisson:                                 145.553     2.602   0.0% |
   Communicate from 1D:                     34.650    34.650   0.3% |
   Communicate from 2D:                     37.914    37.914   0.4% |
   Communicate to 1D:                       25.071    25.071   0.2% |
   Communicate to 2D:                       32.452    32.452   0.3% |
   FFT 1D:                                   3.832     3.832   0.0% |
   FFT 2D:                                   9.032     9.032   0.1% |
  XC 3D grid:                              105.670   105.670   1.0% |
  vbar:                                      0.683     0.683   0.0% |
 Orthonormalize:                            57.315     0.025   0.0% |
  calc_s_matrix:                             2.166     2.166   0.0% |
  inverse-cholesky:                         51.015    51.015   0.5% |
  projections:                               0.006     0.006   0.0% |
  rotate_psi_s:                              4.104     4.104   0.0% |
Set symmetry:                                0.002     0.002   0.0% |
Other:                                     610.487   610.487   5.8% |-|
-------------------------------------------------------------------
Total:                                             10481.174 100.0%

Memory usage: 312.48 MiB
Date: Fri Feb 24 15:47:21 2023
