
  ___ ___ ___ _ _ _  
 |   |   |_  | | | | 
 | | | | | . | | | | 
 |__ |  _|___|_____|  22.8.0
 |___|_|             

User:   patriku@vera03-1
Date:   Sun Feb 26 12:38:57 2023
Arch:   x86_64
Pid:    3449442
CWD:    /cephyr/users/patriku/Vera/Assignment4/task6_vera/Au
Python: 3.10.4
gpaw:   /apps/Arch/software/GPAW/22.8.0-foss-2022a/lib/python3.10/site-packages/gpaw
_gpaw:  /apps/Arch/software/GPAW/22.8.0-foss-2022a/lib/python3.10/site-packages/
        _gpaw.cpython-310-x86_64-linux-gnu.so
ase:    /apps/Arch/software/ASE/3.22.1-foss-2022a/lib/python3.10/site-packages/ase (version 3.22.1)
numpy:  /apps/Arch/software/SciPy-bundle/2022.05-foss-2022a/lib/python3.10/site-packages/numpy (version 1.22.3)
scipy:  /apps/Arch/software/SciPy-bundle/2022.05-foss-2022a/lib/python3.10/site-packages/scipy (version 1.8.1)
libxc:  5.2.3
units:  Angstrom and eV
cores: 30
OpenMP: False
OMP_NUM_THREADS: 1

Input parameters:
  kpts: [4 4 1]
  xc: PBE

System changes: positions, numbers, cell, pbc, initial_charges, initial_magmoms 

Initialize ...

species:
  Au:
    name: Gold
    id: b12133f335f6ca0d89c4b1ccaa844e9a
    Z: 79.0
    valence: 11
    core: 68
    charge: 0.0
    file: /apps/Common/software/GPAW-setups/0.9.20000/Au.PBE.gz
    compensation charges: {type: gauss,
                           rc: 0.42,
                           lmax: 2}
    cutoffs: {filter: 2.33,
              core: 2.81}
    valence states:
      #              energy  rcut
      - 6s(1.00)    -5.728   1.323
      - 6p(0.00)    -0.775   1.323
      - 5d(10.00)    -6.891   1.323
      -  s          21.484   1.323
      -  p          26.436   1.323
      -  d          20.321   1.323
  
    # Using partial waves for Au as LCAO basis

  O:
    name: Oxygen
    id: 32ecd46bf208036f09c70b0ec9a88b78
    Z: 8.0
    valence: 6
    core: 2
    charge: 0.0
    file: /apps/Common/software/GPAW-setups/0.9.20000/O.PBE.gz
    compensation charges: {type: gauss,
                           rc: 0.21,
                           lmax: 2}
    cutoffs: {filter: 1.17,
              core: 0.83}
    valence states:
      #              energy  rcut
      - 2s(2.00)   -23.961   0.688
      - 2p(4.00)    -9.029   0.598
      -  s           3.251   0.688
      -  p          18.182   0.598
      -  d           0.000   0.619
  
    # Using partial waves for O as LCAO basis

  C:
    name: Carbon
    id: 4aa54d4b901d75f77cc0ea3eec22967b
    Z: 6.0
    valence: 4
    core: 2
    charge: 0.0
    file: /apps/Common/software/GPAW-setups/0.9.20000/C.PBE.gz
    compensation charges: {type: gauss,
                           rc: 0.20,
                           lmax: 2}
    cutoffs: {filter: 1.14,
              core: 1.14}
    valence states:
      #              energy  rcut
      - 2s(2.00)   -13.751   0.635
      - 2p(2.00)    -5.284   0.635
      -  s          13.461   0.635
      -  p          21.927   0.635
      -  d           0.000   0.635
  
    # Using partial waves for C as LCAO basis

Reference energy: -13951221.800367  # eV

Spin-paired calculation

Convergence criteria:
 Maximum [total energy] change in last 3 cyles: 0.0005 eV / electron
 Maximum integral of absolute [dens]ity change: 0.0001 electrons / valence electron
 Maximum integral of absolute [eigenst]ate change: 4e-08 eV^2 / valence electron
 Maximum number of scf [iter]ations: 333
 (Square brackets indicate name in SCF output, whereas a 'c' in
 the SCF output indicates the quantity has converged.)

Symmetries present (total): 1

  ( 1  0  0)
  ( 0  1  0)
  ( 0  0  1)

16 k-points: 4 x 4 x 1 Monkhorst-Pack grid
8 k-points in the irreducible part of the Brillouin zone
       k-points in crystal coordinates                weights
   0:     0.12500000   -0.37500000    0.00000000          2/16
   1:     0.12500000   -0.12500000    0.00000000          2/16
   2:     0.12500000    0.12500000    0.00000000          2/16
   3:     0.12500000    0.37500000    0.00000000          2/16
   4:     0.37500000   -0.37500000    0.00000000          2/16
   5:     0.37500000   -0.12500000    0.00000000          2/16
   6:     0.37500000    0.12500000    0.00000000          2/16
   7:     0.37500000    0.37500000    0.00000000          2/16

Wave functions: Uniform real-space grid
  Kinetic energy operator: 8*3+1=25 point O(h^6) finite-difference Laplacian
  ScaLapack parameters: grid=1x1, blocksize=None
  Wavefunction extrapolation:
    Improved wavefunction reuse through dual PAW basis 

Occupation numbers: Fermi-Dirac:
  width: 0.1000  # eV
 

Eigensolver
   Davidson(niter=2) 

Densities:
  Coarse grid: 40*40*144 grid
  Fine grid: 80*80*288 grid
  Total Charge: 0.000000 

Density mixing:
  Method: separate
  Backend: pulay
  Linear mixing parameter: 0.05
  old densities: 5
  Damping of long wavelength oscillations: 50 

Hamiltonian:
  XC and Coulomb potentials evaluated on a 80*80*288 grid
  Using the PBE Exchange-Correlation functional
  Interpolation: tri-quintic (5. degree polynomial)
  Poisson solver: FastPoissonSolver using
    Stencil: 8*3+1=25 point O(h^6) finite-difference Laplacian
    FFT axes: [0, 1, 2]
    FST axes: []
 

XC parameters: PBE with 2 nearest neighbor stencil

Memory estimate:
  Process memory now: 228.31 MiB
  Calculator: 259.18 MiB
    Density: 13.64 MiB
      Arrays: 3.12 MiB
      Localized functions: 9.29 MiB
      Mixer: 1.24 MiB
    Hamiltonian: 2.73 MiB
      Arrays: 2.04 MiB
      XC: 0.00 MiB
      Poisson: 0.00 MiB
      vbar: 0.69 MiB
    Wavefunctions: 242.81 MiB
      Arrays psit_nG: 187.34 MiB
      Eigensolver: 53.53 MiB
      Projections: 0.39 MiB
      Projectors: 1.55 MiB

Total number of cores used: 30
Parallelization over k-points: 2
Domain decomposition: 1 x 3 x 5

Number of atoms: 29
Number of atomic orbitals: 251
Number of bands in calculation: 189
Number of valence electrons: 307
Bands to converge: occupied

... initialized

Initializing position-dependent things.

Density initialized from atomic densities
Creating initial wave functions:
  189 bands from LCAO basis set

                                              
                                              
                                              
                                              
                                              
                                              
                     O                        
                                              
                     C                        
                  Au     Au     Au            
                                              
            Au     AAu    AAu    Au           
       Au     Au     AAu    Au                
                                              
        Au     Au     AAu    Au     Au        
                                              
                 Au     Au     Au             
                                              
           Au      Au     Au                  
                                              
                                              
                                              
                                              

Positions:
   0 Au     1.474319    0.851198   11.968372    ( 0.0000,  0.0000,  0.0000)
   1 Au     4.422953    0.851198   11.968372    ( 0.0000,  0.0000,  0.0000)
   2 Au     7.371587    0.851198   11.968372    ( 0.0000,  0.0000,  0.0000)
   3 Au     2.948636    3.404791   11.968372    ( 0.0000,  0.0000,  0.0000)
   4 Au     5.897270    3.404791   11.968372    ( 0.0000,  0.0000,  0.0000)
   5 Au     8.845906    3.404792   11.968371    ( 0.0000,  0.0000,  0.0000)
   6 Au     4.422953    5.958382   11.968372    ( 0.0000,  0.0000,  0.0000)
   7 Au     7.371589    5.958383   11.968371    ( 0.0000,  0.0000,  0.0000)
   8 Au    10.320222    5.958383   11.968371    ( 0.0000,  0.0000,  0.0000)
   9 Au     0.000000    1.702395   14.407550    ( 0.0000,  0.0000,  0.0000)
  10 Au     2.948636    1.702396   14.407550    ( 0.0000,  0.0000,  0.0000)
  11 Au     5.897270    1.702396   14.407550    ( 0.0000,  0.0000,  0.0000)
  12 Au     1.474318    4.255988   14.407550    ( 0.0000,  0.0000,  0.0000)
  13 Au     4.422953    4.255988   14.407550    ( 0.0000,  0.0000,  0.0000)
  14 Au     7.371588    4.255988   14.407550    ( 0.0000,  0.0000,  0.0000)
  15 Au     2.948635    6.809581   14.407550    ( 0.0000,  0.0000,  0.0000)
  16 Au     5.897271    6.809581   14.407550    ( 0.0000,  0.0000,  0.0000)
  17 Au     8.845906    6.809581   14.407550    ( 0.0000,  0.0000,  0.0000)
  18 Au    -0.000000   -0.000000   16.846730    ( 0.0000,  0.0000,  0.0000)
  19 Au     2.948635   -0.000001   16.846730    ( 0.0000,  0.0000,  0.0000)
  20 Au     5.897271   -0.000001   16.846730    ( 0.0000,  0.0000,  0.0000)
  21 Au     1.474317    2.553593   16.846730    ( 0.0000,  0.0000,  0.0000)
  22 Au     4.422953    2.553593   16.846729    ( 0.0000,  0.0000,  0.0000)
  23 Au     7.371589    2.553593   16.846730    ( 0.0000,  0.0000,  0.0000)
  24 Au     2.948635    5.107187   16.846730    ( 0.0000,  0.0000,  0.0000)
  25 Au     5.897271    5.107187   16.846730    ( 0.0000,  0.0000,  0.0000)
  26 Au     8.845906    5.107186   16.846729    ( 0.0000,  0.0000,  0.0000)
  27 O      5.000000    3.100000   20.075170    ( 0.0000,  0.0000,  0.0000)
  28 C      5.000000    3.100000   18.924830    ( 0.0000,  0.0000,  0.0000)

Unit cell:
           periodic     x           y           z      points  spacing
  1. axis:    yes    8.845906    0.000000    0.000000    40     0.1915
  2. axis:    yes    4.422953    7.660779    0.000000    40     0.1915
  3. axis:    yes    0.000000    0.000000   28.815101   144     0.2001

  Lengths:   8.845906   8.845906  28.815101
  Angles:   90.000000  90.000000  60.000000

Effective grid spacing dv^(1/3) = 0.2039

     iter     time        total  log10-change:
                         energy  eigst   dens
iter:   1 12:39:25  -103.621638
iter:   2 12:39:46  -102.372477  -0.72  -1.35
iter:   3 12:40:07   -99.591028  -1.27  -1.37
iter:   4 12:40:28   -96.940687  -1.14  -1.47
iter:   5 12:40:49   -96.684685  -1.41  -1.74
iter:   6 12:41:10   -96.753096  -2.01  -2.02
iter:   7 12:41:31   -96.669770c -2.05  -2.10
iter:   8 12:41:52   -96.641914c -2.87  -2.37
iter:   9 12:42:13   -96.572098c -2.76  -2.44
iter:  10 12:42:34   -96.569742c -3.00  -2.79
iter:  11 12:42:55   -96.567225c -3.99  -2.93
iter:  12 12:43:16   -96.565734c -3.99  -3.01
iter:  13 12:43:38   -96.565693c -4.07  -3.12
iter:  14 12:43:59   -96.565445c -4.27  -3.19
iter:  15 12:44:20   -96.566228c -4.40  -3.34
iter:  16 12:44:41   -96.564999c -4.13  -3.28
iter:  17 12:45:03   -96.564904c -5.31  -3.57
iter:  18 12:45:24   -96.564910c -5.70  -3.84
iter:  19 12:45:45   -96.564850c -5.38  -3.96
iter:  20 12:46:06   -96.564852c -5.64  -3.94
iter:  21 12:46:27   -96.564886c -5.91  -4.21c
iter:  22 12:46:48   -96.564832c -6.16  -4.11c
iter:  23 12:47:09   -96.564836c -7.09  -4.45c
iter:  24 12:47:30   -96.564835c -7.65c -4.50c

Converged after 24 iterations.

Dipole moment: (-3.074647, -1.746804, 0.136111) |e|*Ang

Energy contributions relative to reference atoms: (reference = -13951221.800367)

Kinetic:       -322.021740
Potential:     +253.327457
External:        +0.000000
XC:             -33.302754
Entropy (-ST):   -0.303839
Local:           +5.584121
--------------------------
Free energy:    -96.716755
Extrapolated:   -96.564835

Showing only first 2 kpts
 Kpt  Band  Eigenvalues  Occupancy
  0   151     -1.45085    0.81769
  0   152     -1.43786    0.75571
  0   153     -1.34351    0.38243
  0   154     -1.25543    0.17848

  1   151     -2.72533    1.99999
  1   152     -2.36494    1.99969
  1   153     -2.01204    1.98949
  1   154     -1.93461    1.97734


Fermi level: -1.48773

No gap

Forces in eV/Ang:
  0 Au    0.02741    0.01574    0.05648
  1 Au    0.00555   -0.07990    0.00511
  2 Au   -0.03345    0.01256    0.01994
  3 Au   -0.05432    0.04562    0.00652
  4 Au    0.02544    0.02103   -0.00769
  5 Au    0.01493   -0.03519    0.03592
  6 Au   -0.00803   -0.04014    0.01249
  7 Au   -0.01696    0.03406    0.03197
  8 Au    0.02017    0.01691    0.01738
  9 Au    0.01386   -0.00765   -0.02193
 10 Au    0.06282    0.04539    0.13022
 11 Au   -0.00962    0.02035    0.04042
 12 Au    0.01032    0.00104    0.00053
 13 Au    0.00912   -0.00504   -0.00199
 14 Au   -0.03367   -0.01542    0.01251
 15 Au   -0.00741    0.00002   -0.01266
 16 Au   -0.00098    0.00857   -0.01292
 17 Au    0.01141   -0.00173   -0.00810
 18 Au   -0.00870   -0.00566   -0.05889
 19 Au   -0.02663   -0.04397   -0.01435
 20 Au    0.05803   -0.15085   -0.05495
 21 Au   -0.07445   -0.00283   -0.02722
 22 Au   -0.10326   -0.09892    0.44063
 23 Au    0.32481   -0.01849   -0.10175
 24 Au   -0.16640    0.18787   -0.08906
 25 Au    0.18886    0.29749   -0.06885
 26 Au   -0.00911   -0.00963   -0.03815
 27 O     0.09022    0.07648   -0.82384
 28 C    -0.27467   -0.24237    0.52651

System changes: positions 

Initializing position-dependent things.

Density initialized from wave functions
                                              
                                              
                                              
                                              
                                              
                                              
                     O                        
                                              
                     C                        
                  Au     Au     Au            
                                              
            Au     AAu    AAu    Au           
       Au     Au     AAu    Au                
                                              
        Au     Au     AAu    Au     Au        
                                              
                 Au     Au     Au             
                                              
           Au      Au     Au                  
                                              
                                              
                                              
                                              

Positions:
   0 Au     1.474710    0.851423   11.969179    ( 0.0000,  0.0000,  0.0000)
   1 Au     4.423032    0.850057   11.968445    ( 0.0000,  0.0000,  0.0000)
   2 Au     7.371109    0.851378   11.968657    ( 0.0000,  0.0000,  0.0000)
   3 Au     2.947860    3.405442   11.968465    ( 0.0000,  0.0000,  0.0000)
   4 Au     5.897634    3.405091   11.968262    ( 0.0000,  0.0000,  0.0000)
   5 Au     8.846119    3.404289   11.968884    ( 0.0000,  0.0000,  0.0000)
   6 Au     4.422838    5.957809   11.968551    ( 0.0000,  0.0000,  0.0000)
   7 Au     7.371347    5.958870   11.968828    ( 0.0000,  0.0000,  0.0000)
   8 Au    10.320511    5.958625   11.968619    ( 0.0000,  0.0000,  0.0000)
   9 Au     0.000198    1.702286   14.407237    ( 0.0000,  0.0000,  0.0000)
  10 Au     2.949533    1.703044   14.409410    ( 0.0000,  0.0000,  0.0000)
  11 Au     5.897133    1.702686   14.408127    ( 0.0000,  0.0000,  0.0000)
  12 Au     1.474465    4.256003   14.407557    ( 0.0000,  0.0000,  0.0000)
  13 Au     4.423083    4.255916   14.407521    ( 0.0000,  0.0000,  0.0000)
  14 Au     7.371107    4.255768   14.407729    ( 0.0000,  0.0000,  0.0000)
  15 Au     2.948529    6.809582   14.407369    ( 0.0000,  0.0000,  0.0000)
  16 Au     5.897257    6.809704   14.407365    ( 0.0000,  0.0000,  0.0000)
  17 Au     8.846069    6.809557   14.407434    ( 0.0000,  0.0000,  0.0000)
  18 Au    -0.000124   -0.000081   16.845889    ( 0.0000,  0.0000,  0.0000)
  19 Au     2.948254   -0.000629   16.846525    ( 0.0000,  0.0000,  0.0000)
  20 Au     5.898100   -0.002156   16.845945    ( 0.0000,  0.0000,  0.0000)
  21 Au     1.473253    2.553552   16.846341    ( 0.0000,  0.0000,  0.0000)
  22 Au     4.421478    2.552180   16.853024    ( 0.0000,  0.0000,  0.0000)
  23 Au     7.376229    2.553329   16.845276    ( 0.0000,  0.0000,  0.0000)
  24 Au     2.946258    5.109871   16.845457    ( 0.0000,  0.0000,  0.0000)
  25 Au     5.899969    5.111437   16.845746    ( 0.0000,  0.0000,  0.0000)
  26 Au     8.845776    5.107049   16.846184    ( 0.0000,  0.0000,  0.0000)
  27 O      5.001289    3.101093   20.063401    ( 0.0000,  0.0000,  0.0000)
  28 C      4.996076    3.096538   18.932352    ( 0.0000,  0.0000,  0.0000)

Unit cell:
           periodic     x           y           z      points  spacing
  1. axis:    yes    8.845906    0.000000    0.000000    40     0.1915
  2. axis:    yes    4.422953    7.660779    0.000000    40     0.1915
  3. axis:    yes    0.000000    0.000000   28.815101   144     0.2001

  Lengths:   8.845906   8.845906  28.815101
  Angles:   90.000000  90.000000  60.000000

Effective grid spacing dv^(1/3) = 0.2039

     iter     time        total  log10-change:
                         energy  eigst   dens
iter:   1 12:48:32   -96.685121  -2.51
iter:   2 12:48:53   -96.606628  -3.26  -2.52
iter:   3 12:49:14   -96.588444c -3.68  -2.95
iter:   4 12:49:36   -96.574168c -3.48  -3.13
iter:   5 12:49:57   -96.571646c -4.07  -3.16
iter:   6 12:50:18   -96.571654c -4.33  -3.40
iter:   7 12:50:40   -96.570381c -4.39  -3.44
iter:   8 12:51:01   -96.570292c -5.14  -3.78
iter:   9 12:51:23   -96.570280c -5.70  -3.92
iter:  10 12:51:45   -96.570247c -5.73  -3.99
iter:  11 12:52:06   -96.570249c -6.22  -4.26c
iter:  12 12:52:28   -96.570241c -6.49  -4.42c
iter:  13 12:52:49   -96.570244c -6.99  -4.48c
iter:  14 12:53:10   -96.570259c -6.72  -4.54c
iter:  15 12:53:32   -96.570261c -7.32  -4.75c
iter:  16 12:53:53   -96.570249c -7.32  -4.77c
iter:  17 12:54:15   -96.570250c -7.93c -5.25c

Converged after 17 iterations.

Dipole moment: (-2.815960, -1.640649, 0.167403) |e|*Ang

Energy contributions relative to reference atoms: (reference = -13951221.800367)

Kinetic:       -320.226817
Potential:     +252.027234
External:        +0.000000
XC:             -33.816110
Entropy (-ST):   -0.303172
Local:           +5.597030
--------------------------
Free energy:    -96.721836
Extrapolated:   -96.570250

Showing only first 2 kpts
 Kpt  Band  Eigenvalues  Occupancy
  0   151     -1.42989    0.81872
  0   152     -1.41596    0.75230
  0   153     -1.32344    0.38583
  0   154     -1.23355    0.17733

  1   151     -2.70630    1.99999
  1   152     -2.34623    1.99970
  1   153     -1.99235    1.98964
  1   154     -1.91348    1.97735


Fermi level: -1.46655

No gap

Forces in eV/Ang:
  0 Au    0.02663    0.01510    0.05667
  1 Au    0.00424   -0.07085    0.00682
  2 Au   -0.03086    0.01195    0.01898
  3 Au   -0.04862    0.03986    0.00755
  4 Au    0.02241    0.01837   -0.00684
  5 Au    0.01294   -0.03095    0.03369
  6 Au   -0.00703   -0.03637    0.01120
  7 Au   -0.01512    0.03011    0.03003
  8 Au    0.01780    0.01499    0.01469
  9 Au    0.01538   -0.00930   -0.02853
 10 Au    0.06550    0.04604    0.13086
 11 Au   -0.01308    0.02335    0.04916
 12 Au    0.00900    0.00043   -0.00221
 13 Au    0.01040   -0.00973    0.01290
 14 Au   -0.03175   -0.01457    0.00808
 15 Au   -0.00486    0.00203   -0.01913
 16 Au   -0.00125    0.01160   -0.01998
 17 Au    0.01007   -0.00154   -0.00926
 18 Au   -0.00836   -0.00678   -0.05048
 19 Au   -0.02125   -0.03589   -0.00929
 20 Au    0.05322   -0.13151   -0.05124
 21 Au   -0.06291   -0.00173   -0.02159
 22 Au   -0.08528   -0.08067    0.40877
 23 Au    0.29781   -0.01730   -0.10371
 24 Au   -0.14566    0.17051   -0.08653
 25 Au    0.17275    0.27544   -0.07870
 26 Au   -0.01079   -0.00997   -0.03061
 27 O     0.09201    0.07613    1.24150
 28 C    -0.29741   -0.27118   -1.54512

System changes: positions 

Initializing position-dependent things.

Density initialized from wave functions
                                              
                                              
                                              
                                              
                                              
                                              
                     O                        
                                              
                     C                        
                  Au     Au     Au            
                                              
            Au     AAu    AAu    Au           
       Au     Au     AAu    Au                
                                              
        Au      Au    AAu    Au     Au        
                                              
                 Au     Au     Au             
                                              
           Au      Au     Au                  
                                              
                                              
                                              
                                              

Positions:
   0 Au     1.475279    0.851748   11.970365    ( 0.0000,  0.0000,  0.0000)
   1 Au     4.423137    0.848460   11.968567    ( 0.0000,  0.0000,  0.0000)
   2 Au     7.370430    0.851636   11.969067    ( 0.0000,  0.0000,  0.0000)
   3 Au     2.946770    3.406349   11.968610    ( 0.0000,  0.0000,  0.0000)
   4 Au     5.898141    3.405509   11.968108    ( 0.0000,  0.0000,  0.0000)
   5 Au     8.846415    3.403588   11.969618    ( 0.0000,  0.0000,  0.0000)
   6 Au     4.422678    5.957000   11.968801    ( 0.0000,  0.0000,  0.0000)
   7 Au     7.371007    5.959550   11.969481    ( 0.0000,  0.0000,  0.0000)
   8 Au    10.320913    5.958963   11.968960    ( 0.0000,  0.0000,  0.0000)
   9 Au     0.000502    1.702111   14.406719    ( 0.0000,  0.0000,  0.0000)
  10 Au     2.950874    1.704002   14.412147    ( 0.0000,  0.0000,  0.0000)
  11 Au     5.896901    1.703139   14.409052    ( 0.0000,  0.0000,  0.0000)
  12 Au     1.474670    4.256020   14.407545    ( 0.0000,  0.0000,  0.0000)
  13 Au     4.423286    4.255769   14.407610    ( 0.0000,  0.0000,  0.0000)
  14 Au     7.370418    4.255452   14.407952    ( 0.0000,  0.0000,  0.0000)
  15 Au     2.948396    6.809600   14.407047    ( 0.0000,  0.0000,  0.0000)
  16 Au     5.897234    6.809910   14.407033    ( 0.0000,  0.0000,  0.0000)
  17 Au     8.846297    6.809522   14.407254    ( 0.0000,  0.0000,  0.0000)
  18 Au    -0.000304   -0.000209   16.844727    ( 0.0000,  0.0000,  0.0000)
  19 Au     2.947743   -0.001480   16.846268    ( 0.0000,  0.0000,  0.0000)
  20 Au     5.899276   -0.005151   16.844825    ( 0.0000,  0.0000,  0.0000)
  21 Au     1.471793    2.553503   16.845819    ( 0.0000,  0.0000,  0.0000)
  22 Au     4.419469    2.550265   16.861987    ( 0.0000,  0.0000,  0.0000)
  23 Au     7.382806    2.552951   16.843125    ( 0.0000,  0.0000,  0.0000)
  24 Au     2.942949    5.113660   16.843612    ( 0.0000,  0.0000,  0.0000)
  25 Au     5.903789    5.117484   16.844216    ( 0.0000,  0.0000,  0.0000)
  26 Au     8.845570    5.106844   16.845450    ( 0.0000,  0.0000,  0.0000)
  27 O      5.003197    3.102694   20.064199    ( 0.0000,  0.0000,  0.0000)
  28 C      4.990115    3.091201   18.925261    ( 0.0000,  0.0000,  0.0000)

Unit cell:
           periodic     x           y           z      points  spacing
  1. axis:    yes    8.845906    0.000000    0.000000    40     0.1915
  2. axis:    yes    4.422953    7.660779    0.000000    40     0.1915
  3. axis:    yes    0.000000    0.000000   28.815101   144     0.2001

  Lengths:   8.845906   8.845906  28.815101
  Angles:   90.000000  90.000000  60.000000

Effective grid spacing dv^(1/3) = 0.2039

     iter     time        total  log10-change:
                         energy  eigst   dens
iter:   1 12:55:16   -96.602431  -2.86
iter:   2 12:55:38   -96.598561  -3.83  -3.09
iter:   3 12:55:59   -96.593949c -3.89  -3.20
iter:   4 12:56:20   -96.593614c -4.42  -3.51
iter:   5 12:56:41   -96.593132c -4.69  -3.55
iter:   6 12:57:03   -96.593019c -5.32  -3.74
iter:   7 12:57:24   -96.593026c -5.32  -3.96
iter:   8 12:57:45   -96.592999c -5.83  -4.22c
iter:   9 12:58:07   -96.593005c -5.94  -4.19c
iter:  10 12:58:28   -96.593009c -6.56  -4.45c
iter:  11 12:58:49   -96.593000c -6.65  -4.50c
iter:  12 12:59:11   -96.593006c -7.08  -4.83c
iter:  13 12:59:32   -96.592997c -7.49c -4.80c

Converged after 13 iterations.

Dipole moment: (-2.427218, -1.480931, 0.156187) |e|*Ang

Energy contributions relative to reference atoms: (reference = -13951221.800367)

Kinetic:       -321.409482
Potential:     +252.999983
External:        +0.000000
XC:             -33.624112
Entropy (-ST):   -0.303685
Local:           +5.592455
--------------------------
Free energy:    -96.744840
Extrapolated:   -96.592997

Showing only first 2 kpts
 Kpt  Band  Eigenvalues  Occupancy
  0   151     -1.43795    0.82342
  0   152     -1.42389    0.75629
  0   153     -1.33136    0.38846
  0   154     -1.24111    0.17811

  1   151     -2.71328    1.99999
  1   152     -2.34854    1.99968
  1   153     -2.00037    1.98974
  1   154     -1.91709    1.97656


Fermi level: -1.47364

No gap

Forces in eV/Ang:
  0 Au    0.02459    0.01346    0.05857
  1 Au    0.00248   -0.05967    0.00896
  2 Au   -0.02692    0.01003    0.01861
  3 Au   -0.04172    0.03268    0.00871
  4 Au    0.01864    0.01495   -0.00621
  5 Au    0.01064   -0.02456    0.03186
  6 Au   -0.00641   -0.03021    0.01006
  7 Au   -0.01184    0.02494    0.02832
  8 Au    0.01433    0.01229    0.01289
  9 Au    0.01662   -0.01022   -0.03413
 10 Au    0.07067    0.04795    0.13063
 11 Au   -0.01776    0.02577    0.05817
 12 Au    0.00686   -0.00007   -0.00451
 13 Au    0.01084   -0.01496    0.02847
 14 Au   -0.02727   -0.01201    0.00314
 15 Au   -0.00201    0.00426   -0.02559
 16 Au   -0.00086    0.01379   -0.02567
 17 Au    0.00842   -0.00173   -0.00975
 18 Au   -0.00709   -0.00659   -0.04563
 19 Au   -0.01484   -0.02676   -0.00791
 20 Au    0.04777   -0.11007   -0.05050
 21 Au   -0.05048   -0.00076   -0.01918
 22 Au   -0.07679   -0.07058    0.39910
 23 Au    0.26023   -0.01531   -0.09723
 24 Au   -0.12006    0.15016   -0.08428
 25 Au    0.14733    0.24026   -0.07394
 26 Au   -0.00980   -0.00851   -0.02768
 27 O     0.08570    0.06970    0.35200
 28 C    -0.28441   -0.25153   -0.63421

System changes: positions 

Initializing position-dependent things.

Density initialized from wave functions
                                              
                                              
                                              
                                              
                                              
                                              
                     O                        
                                              
                     C                        
                  Au     Au     Au            
                    Au                        
            Au     Au     AAu    Au           
       Au     Au     AAu    Au                
                                              
        Au      Au    AAu    Au     Au        
                                              
                 Au     Au     Au             
                                              
           Au      Au     Au                  
                                              
                                              
                                              
                                              

Positions:
   0 Au     1.478395    0.853504   11.977182    ( 0.0000,  0.0000,  0.0000)
   1 Au     4.423634    0.840039   11.969380    ( 0.0000,  0.0000,  0.0000)
   2 Au     7.366796    0.853002   11.971361    ( 0.0000,  0.0000,  0.0000)
   3 Au     2.940985    3.411082   11.969504    ( 0.0000,  0.0000,  0.0000)
   4 Au     5.900803    3.407686   11.967275    ( 0.0000,  0.0000,  0.0000)
   5 Au     8.847960    3.399964   11.973667    ( 0.0000,  0.0000,  0.0000)
   6 Au     4.421815    5.952747   11.970153    ( 0.0000,  0.0000,  0.0000)
   7 Au     7.369257    5.963114   11.973083    ( 0.0000,  0.0000,  0.0000)
   8 Au    10.323003    5.960729   11.970776    ( 0.0000,  0.0000,  0.0000)
   9 Au     0.002302    1.701056   14.403440    ( 0.0000,  0.0000,  0.0000)
  10 Au     2.958751    1.709529   14.427662    ( 0.0000,  0.0000,  0.0000)
  11 Au     5.895324    1.705858   14.414820    ( 0.0000,  0.0000,  0.0000)
  12 Au     1.475715    4.256082   14.407331    ( 0.0000,  0.0000,  0.0000)
  13 Au     4.424470    4.254635   14.409022    ( 0.0000,  0.0000,  0.0000)
  14 Au     7.366741    4.253790   14.408935    ( 0.0000,  0.0000,  0.0000)
  15 Au     2.947806    6.809831   14.404839    ( 0.0000,  0.0000,  0.0000)
  16 Au     5.897119    6.811220   14.404793    ( 0.0000,  0.0000,  0.0000)
  17 Au     8.847494    6.809319   14.406196    ( 0.0000,  0.0000,  0.0000)
  18 Au    -0.001258   -0.000943   16.838472    ( 0.0000,  0.0000,  0.0000)
  19 Au     2.945208   -0.005783   16.844940    ( 0.0000,  0.0000,  0.0000)
  20 Au     5.905624   -0.020892   16.838555    ( 0.0000,  0.0000,  0.0000)
  21 Au     1.464234    2.553280   16.843044    ( 0.0000,  0.0000,  0.0000)
  22 Au     4.408702    2.540104   16.911956    ( 0.0000,  0.0000,  0.0000)
  23 Au     7.418009    2.550919   16.831203    ( 0.0000,  0.0000,  0.0000)
  24 Au     2.925639    5.133977   16.833282    ( 0.0000,  0.0000,  0.0000)
  25 Au     5.924067    5.149858   16.835636    ( 0.0000,  0.0000,  0.0000)
  26 Au     8.844427    5.105745   16.841518    ( 0.0000,  0.0000,  0.0000)
  27 O      5.013745    3.111469   20.053463    ( 0.0000,  0.0000,  0.0000)
  28 C      4.956640    3.061498   18.901242    ( 0.0000,  0.0000,  0.0000)

Unit cell:
           periodic     x           y           z      points  spacing
  1. axis:    yes    8.845906    0.000000    0.000000    40     0.1915
  2. axis:    yes    4.422953    7.660779    0.000000    40     0.1915
  3. axis:    yes    0.000000    0.000000   28.815101   144     0.2001

  Lengths:   8.845906   8.845906  28.815101
  Angles:   90.000000  90.000000  60.000000

Effective grid spacing dv^(1/3) = 0.2039

     iter     time        total  log10-change:
                         energy  eigst   dens
iter:   1 13:00:33   -96.755700  -1.51
iter:   2 13:00:54   -96.699210  -2.46  -2.43
iter:   3 13:01:16   -96.669801c -2.96  -2.61
iter:   4 13:01:38   -96.657361c -2.91  -2.79
iter:   5 13:01:59   -96.653631c -3.68  -3.05
iter:   6 13:02:21   -96.654183c -3.97  -3.28
iter:   7 13:02:42   -96.652914c -4.16  -3.33
iter:   8 13:03:04   -96.652822c -4.97  -3.57
iter:   9 13:03:25   -96.652757c -5.59  -3.65
iter:  10 13:03:47   -96.652683c -4.93  -3.72
iter:  11 13:04:08   -96.652672c -5.49  -3.98
iter:  12 13:04:30   -96.652669c -6.02  -4.11c
iter:  13 13:04:51   -96.652670c -6.81  -4.37c
iter:  14 13:05:13   -96.652642c -6.45  -4.37c
iter:  15 13:05:35   -96.652644c -6.42  -4.50c
iter:  16 13:05:56   -96.652645c -7.37  -4.81c
iter:  17 13:06:18   -96.652646c -7.79c -4.93c

Converged after 17 iterations.

Dipole moment: (-0.377499, -0.642338, 0.136777) |e|*Ang

Energy contributions relative to reference atoms: (reference = -13951221.800367)

Kinetic:       -322.389584
Potential:     +253.730404
External:        +0.000000
XC:             -33.461985
Entropy (-ST):   -0.305284
Local:           +5.621161
--------------------------
Free energy:    -96.805288
Extrapolated:   -96.652646

Showing only first 2 kpts
 Kpt  Band  Eigenvalues  Occupancy
  0   151     -1.45509    0.85085
  0   152     -1.43963    0.77628
  0   153     -1.34864    0.40686
  0   154     -1.25455    0.18127

  1   151     -2.72627    1.99999
  1   152     -2.34175    1.99962
  1   153     -2.01790    1.99034
  1   154     -1.91071    1.97203


Fermi level: -1.48514

No gap

Forces in eV/Ang:
  0 Au    0.01104    0.00347    0.05451
  1 Au   -0.00596    0.00792    0.01296
  2 Au   -0.00447    0.00050    0.00871
  3 Au    0.00029   -0.00748    0.00793
  4 Au   -0.00121   -0.00284   -0.00785
  5 Au   -0.00323    0.00707    0.01676
  6 Au   -0.00172    0.00339   -0.00298
  7 Au    0.00240   -0.00341    0.01422
  8 Au   -0.00246   -0.00169   -0.00159
  9 Au    0.02258   -0.01312   -0.06293
 10 Au    0.09579    0.05584    0.12664
 11 Au   -0.04240    0.04136    0.10687
 12 Au    0.00097   -0.00557   -0.01483
 13 Au    0.01486   -0.04167    0.10796
 14 Au   -0.01342   -0.00444   -0.01897
 15 Au    0.01325    0.01600   -0.05828
 16 Au    0.00137    0.02428   -0.05561
 17 Au   -0.00034    0.00321   -0.01049
 18 Au    0.00073   -0.00562   -0.01867
 19 Au    0.02444    0.03010    0.00175
 20 Au    0.01093    0.01934   -0.03527
 21 Au    0.02668    0.00528   -0.00365
 22 Au   -0.05881   -0.03352    0.21835
 23 Au    0.08367    0.00056   -0.05249
 24 Au    0.01063    0.03972   -0.06035
 25 Au    0.03792    0.08321   -0.04893
 26 Au   -0.00571   -0.00139   -0.00831
 27 O     0.00885    0.03342   -1.22610
 28 C    -0.19569   -0.17075    0.98847

System changes: positions 

Initializing position-dependent things.

Density initialized from wave functions
                                              
                                              
                                              
                                              
                                              
                                              
                     O                        
                                              
                     C                        
                  Au     Au     Au            
            Au      Au                        
                   Au     AAu    Au           
       Au     Au     AAu    Au                
                                              
        Au      Au    AAu    Au     Au        
                                              
                 Au     Au     Au             
                                              
           Au      Au     Au                  
                                              
                                              
                                              
                                              

Positions:
   0 Au     1.480770    0.854796   11.982857    ( 0.0000,  0.0000,  0.0000)
   1 Au     4.423888    0.834264   11.970146    ( 0.0000,  0.0000,  0.0000)
   2 Au     7.364163    0.853978   11.973097    ( 0.0000,  0.0000,  0.0000)
   3 Au     2.936929    3.414287   11.970242    ( 0.0000,  0.0000,  0.0000)
   4 Au     5.902660    3.409175   11.966538    ( 0.0000,  0.0000,  0.0000)
   5 Au     8.848989    3.397517   11.976784    ( 0.0000,  0.0000,  0.0000)
   6 Au     4.421182    5.949807   11.971031    ( 0.0000,  0.0000,  0.0000)
   7 Au     7.368051    5.965567   11.975845    ( 0.0000,  0.0000,  0.0000)
   8 Au    10.324442    5.961948   11.972012    ( 0.0000,  0.0000,  0.0000)
   9 Au     0.003951    1.700098   14.400069    ( 0.0000,  0.0000,  0.0000)
  10 Au     2.965912    1.714359   14.440729    ( 0.0000,  0.0000,  0.0000)
  11 Au     5.893499    1.708484   14.420693    ( 0.0000,  0.0000,  0.0000)
  12 Au     1.476489    4.256022   14.406936    ( 0.0000,  0.0000,  0.0000)
  13 Au     4.425563    4.253136   14.411827    ( 0.0000,  0.0000,  0.0000)
  14 Au     7.363884    4.252520   14.409323    ( 0.0000,  0.0000,  0.0000)
  15 Au     2.947614    6.810263   14.402305    ( 0.0000,  0.0000,  0.0000)
  16 Au     5.897061    6.812549   14.402276    ( 0.0000,  0.0000,  0.0000)
  17 Au     8.848332    6.809251   14.405279    ( 0.0000,  0.0000,  0.0000)
  18 Au    -0.001916   -0.001557   16.833752    ( 0.0000,  0.0000,  0.0000)
  19 Au     2.943851   -0.008280   16.844043    ( 0.0000,  0.0000,  0.0000)
  20 Au     5.910258   -0.031611   16.833581    ( 0.0000,  0.0000,  0.0000)
  21 Au     1.459393    2.553215   16.841038    ( 0.0000,  0.0000,  0.0000)
  22 Au     4.400024    2.532319   16.950398    ( 0.0000,  0.0000,  0.0000)
  23 Au     7.444333    2.549514   16.821944    ( 0.0000,  0.0000,  0.0000)
  24 Au     2.913589    5.148968   16.825024    ( 0.0000,  0.0000,  0.0000)
  25 Au     5.939103    5.174204   16.828752    ( 0.0000,  0.0000,  0.0000)
  26 Au     8.843520    5.104944   16.838621    ( 0.0000,  0.0000,  0.0000)
  27 O      5.021180    3.118216   20.038051    ( 0.0000,  0.0000,  0.0000)
  28 C      4.929785    3.037563   18.887872    ( 0.0000,  0.0000,  0.0000)

Unit cell:
           periodic     x           y           z      points  spacing
  1. axis:    yes    8.845906    0.000000    0.000000    40     0.1915
  2. axis:    yes    4.422953    7.660779    0.000000    40     0.1915
  3. axis:    yes    0.000000    0.000000   28.815101   144     0.2001

  Lengths:   8.845906   8.845906  28.815101
  Angles:   90.000000  90.000000  60.000000

Effective grid spacing dv^(1/3) = 0.2039

     iter     time        total  log10-change:
                         energy  eigst   dens
iter:   1 13:07:19   -96.785171  -1.72
iter:   2 13:07:40   -96.692611  -2.61  -2.42
iter:   3 13:08:02   -96.683119c -3.21  -2.78
iter:   4 13:08:24   -96.675227c -3.07  -2.89
iter:   5 13:08:46   -96.674219c -3.89  -3.17
iter:   6 13:09:07   -96.673321c -4.19  -3.29
iter:   7 13:09:29   -96.673211c -4.65  -3.47
iter:   8 13:09:50   -96.672932c -4.74  -3.61
iter:   9 13:10:12   -96.672957c -5.34  -3.82
iter:  10 13:10:33   -96.672920c -5.30  -3.88
iter:  11 13:10:55   -96.672927c -5.88  -4.10c
iter:  12 13:11:16   -96.672889c -6.10  -4.24c
iter:  13 13:11:37   -96.672896c -6.51  -4.46c
iter:  14 13:11:59   -96.672899c -6.76  -4.50c
iter:  15 13:12:20   -96.672897c -7.12  -4.64c
iter:  16 13:12:42   -96.672890c -7.24  -4.72c
iter:  17 13:13:03   -96.672891c -7.62c -5.01c

Converged after 17 iterations.

Dipole moment: (1.060929, -0.070001, 0.135070) |e|*Ang

Energy contributions relative to reference atoms: (reference = -13951221.800367)

Kinetic:       -320.861259
Potential:     +252.398230
External:        +0.000000
XC:             -33.693974
Entropy (-ST):   -0.306112
Local:           +5.637169
--------------------------
Free energy:    -96.825947
Extrapolated:   -96.672891

Showing only first 2 kpts
 Kpt  Band  Eigenvalues  Occupancy
  0   151     -1.45970    0.87389
  0   152     -1.44340    0.79470
  0   153     -1.35357    0.42334
  0   154     -1.25576    0.18342

  1   151     -2.72787    1.99999
  1   152     -2.33127    1.99958
  1   153     -2.02263    1.99079
  1   154     -1.89715    1.96806


Fermi level: -1.48505

No gap

Forces in eV/Ang:
  0 Au    0.00282   -0.00265    0.04482
  1 Au   -0.01174    0.06572    0.01704
  2 Au    0.00859   -0.00426    0.00057
  3 Au    0.03773   -0.04050    0.00866
  4 Au   -0.01724   -0.01665   -0.00720
  5 Au   -0.01364    0.03084    0.00551
  6 Au    0.00186    0.02348   -0.01133
  7 Au    0.01293   -0.02506    0.00397
  8 Au   -0.01427   -0.01191   -0.01162
  9 Au    0.02634   -0.01311   -0.08265
 10 Au    0.09768    0.05343    0.10203
 11 Au   -0.05143    0.04780    0.13349
 12 Au   -0.00397   -0.00838   -0.02439
 13 Au    0.01874   -0.05175    0.15478
 14 Au   -0.00314    0.00134   -0.03453
 15 Au    0.02273    0.02355   -0.08451
 16 Au    0.00373    0.03092   -0.07802
 17 Au   -0.00615    0.00556   -0.01252
 18 Au    0.00730   -0.00460    0.00598
 19 Au    0.05643    0.07689    0.01148
 20 Au   -0.02014    0.10600   -0.02185
 21 Au    0.09143    0.01087    0.01298
 22 Au   -0.08157   -0.06540   -0.05098
 23 Au   -0.07483    0.00742   -0.02726
 24 Au    0.08031   -0.04626   -0.03514
 25 Au   -0.04767   -0.06552   -0.03561
 26 Au   -0.00111    0.00463    0.01273
 27 O    -0.04050   -0.02395   -1.38852
 28 C    -0.09091   -0.06963    1.28819

System changes: positions 

Initializing position-dependent things.

Density initialized from wave functions
                                              
                                              
                                              
                                              
                                              
                                              
                     O                        
                                              
                     C                        
                  Au     Au     Au            
            Au      Au                        
                   Au     AAu    Au           
       Au     Au     AAu    Au                
                                              
        Au      Au    AAu    Au     Au        
                                              
                 Au     Au     Au             
                                              
           Au      Au     Au                  
                                              
                                              
                                              
                                              

Positions:
   0 Au     1.481349    0.855051   11.984761    ( 0.0000,  0.0000,  0.0000)
   1 Au     4.423775    0.833949   11.970559    ( 0.0000,  0.0000,  0.0000)
   2 Au     7.363691    0.854142   11.973482    ( 0.0000,  0.0000,  0.0000)
   3 Au     2.936585    3.414408   11.970528    ( 0.0000,  0.0000,  0.0000)
   4 Au     5.902824    3.409266   11.966262    ( 0.0000,  0.0000,  0.0000)
   5 Au     8.849017    3.397413   11.977558    ( 0.0000,  0.0000,  0.0000)
   6 Au     4.421070    5.949479   11.971053    ( 0.0000,  0.0000,  0.0000)
   7 Au     7.367962    5.965751   11.976517    ( 0.0000,  0.0000,  0.0000)
   8 Au    10.324562    5.962050   11.972109    ( 0.0000,  0.0000,  0.0000)
   9 Au     0.004709    1.699692   14.398091    ( 0.0000,  0.0000,  0.0000)
  10 Au     2.968933    1.716217   14.445146    ( 0.0000,  0.0000,  0.0000)
  11 Au     5.892345    1.709779   14.423974    ( 0.0000,  0.0000,  0.0000)
  12 Au     1.476614    4.255882   14.406486    ( 0.0000,  0.0000,  0.0000)
  13 Au     4.426092    4.252051   14.414721    ( 0.0000,  0.0000,  0.0000)
  14 Au     7.363173    4.252240   14.408909    ( 0.0000,  0.0000,  0.0000)
  15 Au     2.947903    6.810705   14.400487    ( 0.0000,  0.0000,  0.0000)
  16 Au     5.897102    6.813304   14.400553    ( 0.0000,  0.0000,  0.0000)
  17 Au     8.848432    6.809326   14.404886    ( 0.0000,  0.0000,  0.0000)
  18 Au    -0.001957   -0.001766   16.832798    ( 0.0000,  0.0000,  0.0000)
  19 Au     2.944387   -0.007692   16.844029    ( 0.0000,  0.0000,  0.0000)
  20 Au     5.910989   -0.032453   16.832168    ( 0.0000,  0.0000,  0.0000)
  21 Au     1.459677    2.553364   16.840799    ( 0.0000,  0.0000,  0.0000)
  22 Au     4.396815    2.529531   16.957870    ( 0.0000,  0.0000,  0.0000)
  23 Au     7.449182    2.549306   16.819436    ( 0.0000,  0.0000,  0.0000)
  24 Au     2.912008    5.151657   16.822675    ( 0.0000,  0.0000,  0.0000)
  25 Au     5.941842    5.178757   16.826623    ( 0.0000,  0.0000,  0.0000)
  26 Au     8.843291    5.104826   16.838186    ( 0.0000,  0.0000,  0.0000)
  27 O      5.022229    3.119359   20.029344    ( 0.0000,  0.0000,  0.0000)
  28 C      4.922363    3.031012   18.888566    ( 0.0000,  0.0000,  0.0000)

Unit cell:
           periodic     x           y           z      points  spacing
  1. axis:    yes    8.845906    0.000000    0.000000    40     0.1915
  2. axis:    yes    4.422953    7.660779    0.000000    40     0.1915
  3. axis:    yes    0.000000    0.000000   28.815101   144     0.2001

  Lengths:   8.845906   8.845906  28.815101
  Angles:   90.000000  90.000000  60.000000

Effective grid spacing dv^(1/3) = 0.2039

     iter     time        total  log10-change:
                         energy  eigst   dens
iter:   1 13:14:04   -96.723165  -2.73
iter:   2 13:14:25   -96.693795  -3.52  -2.73
iter:   3 13:14:47   -96.689447c -4.04  -3.23
iter:   4 13:15:08   -96.685582c -3.99  -3.36
iter:   5 13:15:29   -96.685159c -4.67  -3.45
iter:   6 13:15:51   -96.685162c -4.87  -3.65
iter:   7 13:16:12   -96.684849c -5.15  -3.75
iter:   8 13:16:33   -96.684817c -5.60  -4.07c
iter:   9 13:16:55   -96.684817c -6.31  -4.20c
iter:  10 13:17:16   -96.684827c -6.09  -4.24c
iter:  11 13:17:38   -96.684819c -6.74  -4.53c
iter:  12 13:17:59   -96.684814c -7.23  -4.62c
iter:  13 13:18:21   -96.684817c -7.12  -4.64c
iter:  14 13:18:42   -96.684822c -7.20  -4.80c
iter:  15 13:19:03   -96.684824c -7.81c -5.02c

Converged after 15 iterations.

Dipole moment: (1.224582, -0.029931, 0.148497) |e|*Ang

Energy contributions relative to reference atoms: (reference = -13951221.800367)

Kinetic:       -319.319040
Potential:     +251.116102
External:        +0.000000
XC:             -33.971131
Entropy (-ST):   -0.305912
Local:           +5.642202
--------------------------
Free energy:    -96.837780
Extrapolated:   -96.684824

Showing only first 2 kpts
 Kpt  Band  Eigenvalues  Occupancy
  0   151     -1.45147    0.87888
  0   152     -1.43504    0.79892
  0   153     -1.34563    0.42772
  0   154     -1.24604    0.18262

  1   151     -2.71992    1.99999
  1   152     -2.32139    1.99957
  1   153     -2.01483    1.99092
  1   154     -1.88624    1.96753


Fermi level: -1.47582

No gap

Forces in eV/Ang:
  0 Au    0.00278   -0.00266    0.03863
  1 Au   -0.01155    0.07172    0.01829
  2 Au    0.00709   -0.00321   -0.00179
  3 Au    0.04287   -0.04335    0.01007
  4 Au   -0.02069   -0.01874   -0.00549
  5 Au   -0.01429    0.03360    0.00113
  6 Au    0.00202    0.02128   -0.01233
  7 Au    0.01475   -0.02710   -0.00001
  8 Au   -0.01559   -0.01290   -0.01426
  9 Au    0.02681   -0.00873   -0.07571
 10 Au    0.09140    0.05013    0.09008
 11 Au   -0.04160    0.04121    0.12478
 12 Au   -0.00624   -0.00687   -0.02380
 13 Au    0.01838   -0.04241    0.15109
 14 Au    0.00280    0.00453   -0.03560
 15 Au    0.01965    0.02210   -0.08224
 16 Au    0.00742    0.03045   -0.07318
 17 Au   -0.00627    0.00349   -0.01111
 18 Au    0.01057   -0.00207    0.00685
 19 Au    0.05470    0.07260    0.01428
 20 Au   -0.02430    0.11102   -0.01703
 21 Au    0.08962    0.01179    0.01641
 22 Au   -0.07468   -0.06000   -0.10127
 23 Au   -0.10098    0.01127   -0.02032
 24 Au    0.08716   -0.05986   -0.03059
 25 Au   -0.05705   -0.08859   -0.03315
 26 Au    0.00204    0.00714    0.01394
 27 O     0.00875    0.00841   -0.55367
 28 C    -0.13118   -0.10846    0.53437

System changes: positions 

Initializing position-dependent things.

Density initialized from wave functions
                                              
                                              
                                              
                                              
                                              
                                              
                     O                        
                                              
                     C                        
                  Au     Au     Au            
            Au      Au                        
                   Au     AAu    Au           
       Au     Au     AAu    Au                
                                              
        Au      Au    AAu    Au     Au        
                                              
                 Au     Au     Au             
                                              
           Au      Au     Au                  
                                              
                                              
                                              
                                              

Positions:
   0 Au     1.481786    0.855158   11.986818    ( 0.0000,  0.0000,  0.0000)
   1 Au     4.423447    0.835358   11.971236    ( 0.0000,  0.0000,  0.0000)
   2 Au     7.363534    0.854185   11.973676    ( 0.0000,  0.0000,  0.0000)
   3 Au     2.937334    3.413515   11.970941    ( 0.0000,  0.0000,  0.0000)
   4 Au     5.902456    3.408901   11.965968    ( 0.0000,  0.0000,  0.0000)
   5 Au     8.848716    3.398099   11.978059    ( 0.0000,  0.0000,  0.0000)
   6 Au     4.421044    5.949725   11.970784    ( 0.0000,  0.0000,  0.0000)
   7 Au     7.368237    5.965262   11.976929    ( 0.0000,  0.0000,  0.0000)
   8 Au    10.324289    5.961826   11.971838    ( 0.0000,  0.0000,  0.0000)
   9 Au     0.005800    1.699256   14.395164    ( 0.0000,  0.0000,  0.0000)
  10 Au     2.972895    1.718520   14.449966    ( 0.0000,  0.0000,  0.0000)
  11 Au     5.890723    1.711504   14.428829    ( 0.0000,  0.0000,  0.0000)
  12 Au     1.476549    4.255645   14.405671    ( 0.0000,  0.0000,  0.0000)
  13 Au     4.426842    4.250451   14.419936    ( 0.0000,  0.0000,  0.0000)
  14 Au     7.362798    4.252171   14.407848    ( 0.0000,  0.0000,  0.0000)
  15 Au     2.948510    6.811475   14.397499    ( 0.0000,  0.0000,  0.0000)
  16 Au     5.897312    6.814469   14.397838    ( 0.0000,  0.0000,  0.0000)
  17 Au     8.848357    6.809444   14.404394    ( 0.0000,  0.0000,  0.0000)
  18 Au    -0.001733   -0.001937   16.832337    ( 0.0000,  0.0000,  0.0000)
  19 Au     2.945934   -0.005730   16.844358    ( 0.0000,  0.0000,  0.0000)
  20 Au     5.910905   -0.030505   16.830907    ( 0.0000,  0.0000,  0.0000)
  21 Au     1.461830    2.553727   16.841029    ( 0.0000,  0.0000,  0.0000)
  22 Au     4.393155    2.526482   16.960237    ( 0.0000,  0.0000,  0.0000)
  23 Au     7.450004    2.549447   16.817389    ( 0.0000,  0.0000,  0.0000)
  24 Au     2.912961    5.152013   16.820493    ( 0.0000,  0.0000,  0.0000)
  25 Au     5.942337    5.179690   16.824496    ( 0.0000,  0.0000,  0.0000)
  26 Au     8.843199    5.104918   16.838222    ( 0.0000,  0.0000,  0.0000)
  27 O      5.023377    3.120508   20.021839    ( 0.0000,  0.0000,  0.0000)
  28 C      4.914309    3.023996   18.890724    ( 0.0000,  0.0000,  0.0000)

Unit cell:
           periodic     x           y           z      points  spacing
  1. axis:    yes    8.845906    0.000000    0.000000    40     0.1915
  2. axis:    yes    4.422953    7.660779    0.000000    40     0.1915
  3. axis:    yes    0.000000    0.000000   28.815101   144     0.2001

  Lengths:   8.845906   8.845906  28.815101
  Angles:   90.000000  90.000000  60.000000

Effective grid spacing dv^(1/3) = 0.2039

     iter     time        total  log10-change:
                         energy  eigst   dens
iter:   1 13:20:04   -96.721647  -2.76
iter:   2 13:20:26   -96.701381  -3.59  -2.81
iter:   3 13:20:47   -96.696950c -4.08  -3.21
iter:   4 13:21:09   -96.693426c -3.96  -3.33
iter:   5 13:21:30   -96.693051c -4.71  -3.49
iter:   6 13:21:51   -96.693067c -4.88  -3.68
iter:   7 13:22:13   -96.692742c -5.12  -3.76
iter:   8 13:22:34   -96.692726c -5.67  -4.08c
iter:   9 13:22:55   -96.692724c -6.38  -4.20c
iter:  10 13:23:17   -96.692739c -5.87  -4.25c
iter:  11 13:23:38   -96.692726c -6.75  -4.45c
iter:  12 13:23:59   -96.692716c -6.97  -4.61c
iter:  13 13:24:21   -96.692720c -7.36  -4.65c
iter:  14 13:24:42   -96.692724c -7.04  -4.76c
iter:  15 13:25:03   -96.692725c -7.73c -4.98c

Converged after 15 iterations.

Dipole moment: (1.075753, -0.137510, 0.162233) |e|*Ang

Energy contributions relative to reference atoms: (reference = -13951221.800367)

Kinetic:       -317.984200
Potential:     +250.021149
External:        +0.000000
XC:             -34.221192
Entropy (-ST):   -0.305586
Local:           +5.644311
--------------------------
Free energy:    -96.845518
Extrapolated:   -96.692725

Showing only first 2 kpts
 Kpt  Band  Eigenvalues  Occupancy
  0   151     -1.44274    0.88290
  0   152     -1.42633    0.80292
  0   153     -1.33728    0.43175
  0   154     -1.23523    0.18054

  1   151     -2.71187    1.99999
  1   152     -2.31220    1.99958
  1   153     -2.00651    1.99103
  1   154     -1.87732    1.96773


Fermi level: -1.46627

No gap

Forces in eV/Ang:
  0 Au    0.00443   -0.00126    0.03101
  1 Au   -0.00898    0.06546    0.02099
  2 Au    0.00094    0.00026   -0.00228
  3 Au    0.04135   -0.03787    0.01412
  4 Au   -0.02242   -0.01821   -0.00073
  5 Au   -0.01321    0.03071   -0.00266
  6 Au    0.00161    0.01101   -0.01024
  7 Au    0.01360   -0.02473   -0.00319
  8 Au   -0.01344   -0.01122   -0.01389
  9 Au    0.02468    0.00000   -0.05795
 10 Au    0.08062    0.04562    0.07082
 11 Au   -0.02160    0.03068    0.09999
 12 Au   -0.00569   -0.00427   -0.02131
 13 Au    0.01737   -0.02446    0.13066
 14 Au    0.00620    0.00600   -0.03371
 15 Au    0.01082    0.01624   -0.06846
 16 Au    0.01312    0.02524   -0.05775
 17 Au   -0.00435    0.00195   -0.00977
 18 Au    0.01326    0.00126    0.00129
 19 Au    0.04050    0.04610    0.01575
 20 Au   -0.01856    0.09450   -0.01347
 21 Au    0.06221    0.01339    0.01602
 22 Au   -0.05583   -0.04217   -0.10899
 23 Au   -0.09683    0.01409   -0.01797
 24 Au    0.07952   -0.05187   -0.02740
 25 Au   -0.05289   -0.08737   -0.03329
 26 Au    0.00497    0.00871    0.01144
 27 O     0.06420    0.06130    0.32389
 28 C    -0.19762   -0.16518   -0.28922

System changes: positions 

Initializing position-dependent things.

Density initialized from wave functions
                                              
                                              
                                              
                                              
                                              
                                              
                     O                        
                                              
                     C                        
                  Au     Au     Au            
            Au      Au                        
                   Au     AAu    Au           
       Au     Au     AAu    Au                
                                              
        Au      Au    AAu    Au     Au        
                                              
                 Au     Au     Au             
                                              
           Au      Au     Au                  
                                              
                                              
                                              
                                              

Positions:
   0 Au     1.482321    0.855296   11.989151    ( 0.0000,  0.0000,  0.0000)
   1 Au     4.423086    0.837068   11.972124    ( 0.0000,  0.0000,  0.0000)
   2 Au     7.363265    0.854285   11.973892    ( 0.0000,  0.0000,  0.0000)
   3 Au     2.938292    3.412466   11.971528    ( 0.0000,  0.0000,  0.0000)
   4 Au     5.901936    3.408434   11.965713    ( 0.0000,  0.0000,  0.0000)
   5 Au     8.848347    3.398939   11.978565    ( 0.0000,  0.0000,  0.0000)
   6 Au     4.421012    5.949884   11.970488    ( 0.0000,  0.0000,  0.0000)
   7 Au     7.368580    5.964661   11.977342    ( 0.0000,  0.0000,  0.0000)
   8 Au    10.323967    5.961561   11.971500    ( 0.0000,  0.0000,  0.0000)
   9 Au     0.007082    1.698901   14.391937    ( 0.0000,  0.0000,  0.0000)
  10 Au     2.977493    1.721218   14.455356    ( 0.0000,  0.0000,  0.0000)
  11 Au     5.889124    1.713394   14.434271    ( 0.0000,  0.0000,  0.0000)
  12 Au     1.476461    4.255405   14.404715    ( 0.0000,  0.0000,  0.0000)
  13 Au     4.427731    4.248835   14.425962    ( 0.0000,  0.0000,  0.0000)
  14 Au     7.362457    4.252142   14.406557    ( 0.0000,  0.0000,  0.0000)
  15 Au     2.949095    6.812308   14.394105    ( 0.0000,  0.0000,  0.0000)
  16 Au     5.897684    6.815787   14.394817    ( 0.0000,  0.0000,  0.0000)
  17 Au     8.848288    6.809558   14.403822    ( 0.0000,  0.0000,  0.0000)
  18 Au    -0.001393   -0.002072   16.831720    ( 0.0000,  0.0000,  0.0000)
  19 Au     2.947592   -0.003784   16.844792    ( 0.0000,  0.0000,  0.0000)
  20 Au     5.910851   -0.028255   16.829469    ( 0.0000,  0.0000,  0.0000)
  21 Au     1.464028    2.554208   16.841322    ( 0.0000,  0.0000,  0.0000)
  22 Au     4.389124    2.523170   16.962640    ( 0.0000,  0.0000,  0.0000)
  23 Au     7.450646    2.549692   16.815054    ( 0.0000,  0.0000,  0.0000)
  24 Au     2.914203    5.152377   16.817970    ( 0.0000,  0.0000,  0.0000)
  25 Au     5.942739    5.180424   16.822009    ( 0.0000,  0.0000,  0.0000)
  26 Au     8.843162    5.105079   16.838248    ( 0.0000,  0.0000,  0.0000)
  27 O      5.025721    3.122810   20.017083    ( 0.0000,  0.0000,  0.0000)
  28 C      4.903593    3.014794   18.890432    ( 0.0000,  0.0000,  0.0000)

Unit cell:
           periodic     x           y           z      points  spacing
  1. axis:    yes    8.845906    0.000000    0.000000    40     0.1915
  2. axis:    yes    4.422953    7.660779    0.000000    40     0.1915
  3. axis:    yes    0.000000    0.000000   28.815101   144     0.2001

  Lengths:   8.845906   8.845906  28.815101
  Angles:   90.000000  90.000000  60.000000

Effective grid spacing dv^(1/3) = 0.2039

     iter     time        total  log10-change:
                         energy  eigst   dens
iter:   1 13:26:05   -96.707447  -2.73
iter:   2 13:26:26   -96.701225  -3.62  -3.04
iter:   3 13:26:47   -96.699758c -4.19  -3.32
iter:   4 13:27:09   -96.698800c -4.14  -3.44
iter:   5 13:27:30   -96.698687c -5.02  -3.73
iter:   6 13:27:51   -96.698632c -5.31  -3.84
iter:   7 13:28:13   -96.698600c -5.79  -4.00c
iter:   8 13:28:34   -96.698583c -5.94  -4.21c
iter:   9 13:28:56   -96.698585c -6.68  -4.40c
iter:  10 13:29:17   -96.698602c -6.14  -4.45c
iter:  11 13:29:39   -96.698598c -7.07  -4.64c
iter:  12 13:30:00   -96.698586c -7.12  -4.82c
iter:  13 13:30:21   -96.698586c -7.76c -5.06c

Converged after 13 iterations.

Dipole moment: (0.918202, -0.249387, 0.166948) |e|*Ang

Energy contributions relative to reference atoms: (reference = -13951221.800367)

Kinetic:       -317.378129
Potential:     +249.516446
External:        +0.000000
XC:             -34.328687
Entropy (-ST):   -0.305496
Local:           +5.644532
--------------------------
Free energy:    -96.851334
Extrapolated:   -96.698586

Showing only first 2 kpts
 Kpt  Band  Eigenvalues  Occupancy
  0   151     -1.44010    0.88873
  0   152     -1.42386    0.80944
  0   153     -1.33488    0.43659
  0   154     -1.23021    0.17857

  1   151     -2.70915    1.99999
  1   152     -2.30778    1.99957
  1   153     -2.00379    1.99113
  1   154     -1.87416    1.96794


Fermi level: -1.46245

No gap

Forces in eV/Ang:
  0 Au    0.00446   -0.00071    0.02362
  1 Au   -0.00623    0.05647    0.02449
  2 Au   -0.00358    0.00279   -0.00173
  3 Au    0.03777   -0.03087    0.01896
  4 Au   -0.02248   -0.01653    0.00493
  5 Au   -0.01208    0.02738   -0.00546
  6 Au    0.00111    0.00232   -0.00681
  7 Au    0.01214   -0.02227   -0.00536
  8 Au   -0.01098   -0.00941   -0.01235
  9 Au    0.02155    0.00800   -0.03906
 10 Au    0.06927    0.03996    0.05528
 11 Au    0.00376    0.01883    0.07253
 12 Au   -0.00623   -0.00066   -0.01775
 13 Au    0.01592   -0.00063    0.10438
 14 Au    0.01126    0.00840   -0.03101
 15 Au    0.00231    0.01029   -0.05313
 16 Au    0.01798    0.01927   -0.04068
 17 Au   -0.00211   -0.00122   -0.00763
 18 Au    0.01603    0.00509   -0.00801
 19 Au    0.02403    0.01519    0.01471
 20 Au   -0.01089    0.07353   -0.01180
 21 Au    0.02978    0.01495    0.01348
 22 Au   -0.03997   -0.02691   -0.12331
 23 Au   -0.08806    0.01661   -0.01720
 24 Au    0.06849   -0.04035   -0.02558
 25 Au   -0.04640   -0.08266   -0.03414
 26 Au    0.00857    0.01056    0.00552
 27 O     0.07116    0.07284    0.55404
 28 C    -0.20875   -0.17520   -0.47127

System changes: positions 

Initializing position-dependent things.

Density initialized from wave functions
                                              
                                              
                                              
                                              
                                              
                                              
                      O                       
                                              
                     C                        
                  Au     Au     Au            
            Au      Au                        
                   Au     AAu    Au           
       Au     Au     AAu    Au                
                                              
        Au      Au    AAu    Au     Au        
                                              
                 Au     Au     Au             
                                              
           Au      Au     Au                  
                                              
                                              
                                              
                                              

Positions:
   0 Au     1.483892    0.855640   11.996198    ( 0.0000,  0.0000,  0.0000)
   1 Au     4.421934    0.843329   11.975333    ( 0.0000,  0.0000,  0.0000)
   2 Au     7.362412    0.854646   11.974456    ( 0.0000,  0.0000,  0.0000)
   3 Au     2.941987    3.408746   11.973756    ( 0.0000,  0.0000,  0.0000)
   4 Au     5.899856    3.406686   11.965226    ( 0.0000,  0.0000,  0.0000)
   5 Au     8.846985    3.402026   11.979779    ( 0.0000,  0.0000,  0.0000)
   6 Au     4.420952    5.950345   11.969522    ( 0.0000,  0.0000,  0.0000)
   7 Au     7.369867    5.962366   11.978310    ( 0.0000,  0.0000,  0.0000)
   8 Au    10.322777    5.960568   11.970241    ( 0.0000,  0.0000,  0.0000)
   9 Au     0.011190    1.698225   14.382101    ( 0.0000,  0.0000,  0.0000)
  10 Au     2.992070    1.729746   14.471672    ( 0.0000,  0.0000,  0.0000)
  11 Au     5.885112    1.719031   14.451080    ( 0.0000,  0.0000,  0.0000)
  12 Au     1.476024    4.254766   14.401604    ( 0.0000,  0.0000,  0.0000)
  13 Au     4.430620    4.244633   14.445309    ( 0.0000,  0.0000,  0.0000)
  14 Au     7.361918    4.252343   14.402121    ( 0.0000,  0.0000,  0.0000)
  15 Au     2.950701    6.814844   14.383380    ( 0.0000,  0.0000,  0.0000)
  16 Au     5.899268    6.819904   14.385492    ( 0.0000,  0.0000,  0.0000)
  17 Au     8.848056    6.809794   14.402054    ( 0.0000,  0.0000,  0.0000)
  18 Au     0.000034   -0.002254   16.829674    ( 0.0000,  0.0000,  0.0000)
  19 Au     2.952680    0.001676   16.846376    ( 0.0000,  0.0000,  0.0000)
  20 Au     5.910476   -0.020101   16.825163    ( 0.0000,  0.0000,  0.0000)
  21 Au     1.470592    2.555987   16.842471    ( 0.0000,  0.0000,  0.0000)
  22 Au     4.377057    2.513476   16.965563    ( 0.0000,  0.0000,  0.0000)
  23 Au     7.449881    2.550876   16.808154    ( 0.0000,  0.0000,  0.0000)
  24 Au     2.919581    5.152304   16.810302    ( 0.0000,  0.0000,  0.0000)
  25 Au     5.942479    5.180008   16.814193    ( 0.0000,  0.0000,  0.0000)
  26 Au     8.843351    5.105850   16.838391    ( 0.0000,  0.0000,  0.0000)
  27 O      5.033618    3.130857   20.007151    ( 0.0000,  0.0000,  0.0000)
  28 C      4.868693    2.985005   18.889167    ( 0.0000,  0.0000,  0.0000)

Unit cell:
           periodic     x           y           z      points  spacing
  1. axis:    yes    8.845906    0.000000    0.000000    40     0.1915
  2. axis:    yes    4.422953    7.660779    0.000000    40     0.1915
  3. axis:    yes    0.000000    0.000000   28.815101   144     0.2001

  Lengths:   8.845906   8.845906  28.815101
  Angles:   90.000000  90.000000  60.000000

Effective grid spacing dv^(1/3) = 0.2039

     iter     time        total  log10-change:
                         energy  eigst   dens
iter:   1 13:31:23   -96.757546  -1.76
iter:   2 13:31:44   -96.733116  -2.68  -2.68
iter:   3 13:32:06   -96.716852c -3.16  -2.82
iter:   4 13:32:27   -96.712352c -3.28  -3.01
iter:   5 13:32:49   -96.711566c -3.92  -3.27
iter:   6 13:33:10   -96.711435c -4.53  -3.50
iter:   7 13:33:32   -96.711349c -4.66  -3.55
iter:   8 13:33:53   -96.711365c -5.21  -3.77
iter:   9 13:34:14   -96.711289c -5.67  -3.86
iter:  10 13:34:36   -96.711220c -5.78  -4.02c
iter:  11 13:34:57   -96.711198c -5.79  -4.16c
iter:  12 13:35:19   -96.711215c -6.06  -4.41c
iter:  13 13:35:40   -96.711212c -7.01  -4.63c
iter:  14 13:36:02   -96.711205c -7.18  -4.71c
iter:  15 13:36:23   -96.711201c -7.46c -4.83c

Converged after 15 iterations.

Dipole moment: (0.338442, -0.618777, 0.171078) |e|*Ang

Energy contributions relative to reference atoms: (reference = -13951221.800367)

Kinetic:       -316.293036
Potential:     +248.562650
External:        +0.000000
XC:             -34.483022
Entropy (-ST):   -0.305367
Local:           +5.654890
--------------------------
Free energy:    -96.863884
Extrapolated:   -96.711201

Showing only first 2 kpts
 Kpt  Band  Eigenvalues  Occupancy
  0   151     -1.44017    0.91112
  0   152     -1.42420    0.83259
  0   153     -1.33439    0.45024
  0   154     -1.22261    0.17351

  1   151     -2.70646    1.99999
  1   152     -2.30152    1.99957
  1   153     -2.00187    1.99135
  1   154     -1.87330    1.96905


Fermi level: -1.45800

No gap

Forces in eV/Ang:
  0 Au    0.01089    0.00461   -0.00226
  1 Au    0.00131    0.02597    0.03402
  2 Au   -0.01921    0.01119   -0.00491
  3 Au    0.02455   -0.00888    0.03214
  4 Au   -0.02299   -0.01101    0.01812
  5 Au   -0.00574    0.01407   -0.01885
  6 Au   -0.00087   -0.02642   -0.00094
  7 Au    0.00669   -0.01014   -0.01664
  8 Au   -0.00199   -0.00230   -0.01065
  9 Au    0.01790    0.03259    0.01679
 10 Au    0.03246    0.02372   -0.00474
 11 Au    0.07494   -0.00772   -0.01060
 12 Au   -0.00188    0.00714   -0.00697
 13 Au    0.01713    0.07980    0.00750
 14 Au    0.02218    0.01290   -0.02244
 15 Au   -0.02327   -0.00700   -0.00511
 16 Au    0.03499    0.00481    0.00912
 17 Au    0.00507   -0.00419   -0.00238
 18 Au    0.02428    0.01743   -0.02994
 19 Au   -0.03274   -0.09018    0.01554
 20 Au    0.01759    0.00004   -0.00251
 21 Au   -0.07652    0.02060    0.01168
 22 Au    0.03221    0.04197   -0.12549
 23 Au   -0.04662    0.02353   -0.00543
 24 Au    0.02479    0.00482   -0.01206
 25 Au   -0.02039   -0.05629   -0.02362
 26 Au    0.01875    0.01542   -0.00589
 27 O     0.10107    0.09144    0.38806
 28 C    -0.13347   -0.11985   -0.26823

System changes: positions 

Initializing position-dependent things.

Density initialized from wave functions
                                              
                                              
                                              
                                              
                                              
                                              
                      O                       
                                              
                     C                        
                  Au     Au     Au            
            Au     Au                         
                   Au     AAu    Au           
       Au     Au     AAu    Au                
                                              
        Au      Au    AAu    Au     Au        
                                              
                 Au     Au     Au             
                                              
           Au      Au     Au                  
                                              
                                              
                                              
                                              

Positions:
   0 Au     1.484489    0.855748   11.998379    ( 0.0000,  0.0000,  0.0000)
   1 Au     4.421492    0.846635   11.977076    ( 0.0000,  0.0000,  0.0000)
   2 Au     7.361982    0.854891   11.974435    ( 0.0000,  0.0000,  0.0000)
   3 Au     2.944147    3.406908   11.975093    ( 0.0000,  0.0000,  0.0000)
   4 Au     5.898514    3.405707   11.965403    ( 0.0000,  0.0000,  0.0000)
   5 Au     8.846286    3.403646   11.979652    ( 0.0000,  0.0000,  0.0000)
   6 Au     4.420967    5.950320   11.969055    ( 0.0000,  0.0000,  0.0000)
   7 Au     7.370573    5.961120   11.978156    ( 0.0000,  0.0000,  0.0000)
   8 Au    10.322171    5.960049   11.969470    ( 0.0000,  0.0000,  0.0000)
   9 Au     0.012939    1.698600   14.378904    ( 0.0000,  0.0000,  0.0000)
  10 Au     2.997605    1.733013   14.476723    ( 0.0000,  0.0000,  0.0000)
  11 Au     5.884993    1.720860   14.456839    ( 0.0000,  0.0000,  0.0000)
  12 Au     1.475772    4.254641   14.400330    ( 0.0000,  0.0000,  0.0000)
  13 Au     4.431937    4.244526   14.452568    ( 0.0000,  0.0000,  0.0000)
  14 Au     7.362323    4.252742   14.400008    ( 0.0000,  0.0000,  0.0000)
  15 Au     2.950937    6.815661   14.379411    ( 0.0000,  0.0000,  0.0000)
  16 Au     5.900478    6.821456   14.382290    ( 0.0000,  0.0000,  0.0000)
  17 Au     8.847984    6.809833   14.401411    ( 0.0000,  0.0000,  0.0000)
  18 Au     0.001047   -0.001974   16.828784    ( 0.0000,  0.0000,  0.0000)
  19 Au     2.954162    0.002400   16.847324    ( 0.0000,  0.0000,  0.0000)
  20 Au     5.910263   -0.016100   16.823894    ( 0.0000,  0.0000,  0.0000)
  21 Au     1.472173    2.557026   16.843283    ( 0.0000,  0.0000,  0.0000)
  22 Au     4.373807    2.511239   16.961542    ( 0.0000,  0.0000,  0.0000)
  23 Au     7.446630    2.551847   16.806226    ( 0.0000,  0.0000,  0.0000)
  24 Au     2.923075    5.151129   16.807868    ( 0.0000,  0.0000,  0.0000)
  25 Au     5.940773    5.176885   16.811417    ( 0.0000,  0.0000,  0.0000)
  26 Au     8.843817    5.106474   16.838594    ( 0.0000,  0.0000,  0.0000)
  27 O      5.037675    3.134853   20.006015    ( 0.0000,  0.0000,  0.0000)
  28 C      4.855630    2.973836   18.890141    ( 0.0000,  0.0000,  0.0000)

Unit cell:
           periodic     x           y           z      points  spacing
  1. axis:    yes    8.845906    0.000000    0.000000    40     0.1915
  2. axis:    yes    4.422953    7.660779    0.000000    40     0.1915
  3. axis:    yes    0.000000    0.000000   28.815101   144     0.2001

  Lengths:   8.845906   8.845906  28.815101
  Angles:   90.000000  90.000000  60.000000

Effective grid spacing dv^(1/3) = 0.2039

     iter     time        total  log10-change:
                         energy  eigst   dens
iter:   1 13:37:25   -96.721629  -2.56
iter:   2 13:37:46   -96.718329  -3.49  -3.07
iter:   3 13:38:08   -96.714685c -3.76  -3.17
iter:   4 13:38:29   -96.714608c -4.23  -3.52
iter:   5 13:38:51   -96.714347c -4.70  -3.61
iter:   6 13:39:12   -96.714351c -5.31  -3.85
iter:   7 13:39:34   -96.714408c -5.34  -3.92
iter:   8 13:39:55   -96.714355c -5.86  -4.08c
iter:   9 13:40:17   -96.714343c -6.31  -4.31c
iter:  10 13:40:38   -96.714342c -6.69  -4.48c
iter:  11 13:41:00   -96.714343c -6.77  -4.57c
iter:  12 13:41:21   -96.714344c -7.06  -4.75c
iter:  13 13:41:42   -96.714336c -7.27  -4.91c
iter:  14 13:42:04   -96.714336c -7.94c -5.06c

Converged after 14 iterations.

Dipole moment: (0.076617, -0.745407, 0.170121) |e|*Ang

Energy contributions relative to reference atoms: (reference = -13951221.800367)

Kinetic:       -316.311761
Potential:     +248.558276
External:        +0.000000
XC:             -34.465006
Entropy (-ST):   -0.305303
Local:           +5.656806
--------------------------
Free energy:    -96.866988
Extrapolated:   -96.714336

Showing only first 2 kpts
 Kpt  Band  Eigenvalues  Occupancy
  0   151     -1.44158    0.91939
  0   152     -1.42569    0.84114
  0   153     -1.33489    0.45289
  0   154     -1.22143    0.17207

  1   151     -2.70586    1.99999
  1   152     -2.30193    1.99957
  1   153     -2.00207    1.99139
  1   154     -1.87656    1.97011


Fermi level: -1.45774

No gap

Forces in eV/Ang:
  0 Au    0.01214    0.00645   -0.00980
  1 Au    0.00422    0.00881    0.03570
  2 Au   -0.02177    0.01289   -0.00499
  3 Au    0.01480    0.00240    0.03569
  4 Au   -0.01940   -0.00639    0.02212
  5 Au   -0.00202    0.00537   -0.02241
  6 Au   -0.00141   -0.03352    0.00199
  7 Au    0.00262   -0.00260   -0.01963
  8 Au    0.00302    0.00169   -0.00855
  9 Au    0.01781    0.03685    0.03434
 10 Au    0.02038    0.01840   -0.02318
 11 Au    0.09737   -0.01385   -0.03822
 12 Au    0.00137    0.00982   -0.00165
 13 Au    0.02035    0.10389   -0.02914
 14 Au    0.02433    0.01359   -0.01739
 15 Au   -0.02908   -0.01040    0.01178
 16 Au    0.03805    0.00265    0.02539
 17 Au    0.00838   -0.00385    0.00015
 18 Au    0.02643    0.02223   -0.03856
 19 Au   -0.05374   -0.12548    0.01346
 20 Au    0.03003   -0.03425   -0.00062
 21 Au   -0.11368    0.02073    0.00973
 22 Au    0.06271    0.07067   -0.07752
 23 Au   -0.01660    0.02323   -0.00037
 24 Au    0.00061    0.02701   -0.00582
 25 Au   -0.00432   -0.03352   -0.01626
 26 Au    0.02240    0.01683   -0.01052
 27 O     0.05796    0.03734    0.11027
 28 C    -0.07416   -0.06975    0.03225

System changes: positions 

Initializing position-dependent things.

Density initialized from wave functions
                                              
                                              
                                              
                                              
                                              
                                              
                      O                       
                                              
                     C                        
                  Au     Au     Au            
            Au     Au                         
                   Au     AAu    Au           
       Au     Au     AAu    Au                
                                              
        Au      Au    AAu    Au     Au        
                                              
                 Au     Au     Au             
                                              
           Au      Au     Au                  
                                              
                                              
                                              
                                              

Positions:
   0 Au     1.484826    0.855811   11.998785    ( 0.0000,  0.0000,  0.0000)
   1 Au     4.421313    0.849190   11.978681    ( 0.0000,  0.0000,  0.0000)
   2 Au     7.361566    0.855191   11.974142    ( 0.0000,  0.0000,  0.0000)
   3 Au     2.946031    3.405638   11.976481    ( 0.0000,  0.0000,  0.0000)
   4 Au     5.897196    3.404893   11.966030    ( 0.0000,  0.0000,  0.0000)
   5 Au     8.845763    3.404881   11.978798    ( 0.0000,  0.0000,  0.0000)
   6 Au     4.421009    5.949912   11.968750    ( 0.0000,  0.0000,  0.0000)
   7 Au     7.371132    5.960146   11.977381    ( 0.0000,  0.0000,  0.0000)
   8 Au    10.321759    5.959681   11.968747    ( 0.0000,  0.0000,  0.0000)
   9 Au     0.014095    1.699662   14.378223    ( 0.0000,  0.0000,  0.0000)
  10 Au     3.000311    1.734683   14.477653    ( 0.0000,  0.0000,  0.0000)
  11 Au     5.887117    1.721308   14.458581    ( 0.0000,  0.0000,  0.0000)
  12 Au     1.475591    4.254781   14.399647    ( 0.0000,  0.0000,  0.0000)
  13 Au     4.432966    4.246763   14.455619    ( 0.0000,  0.0000,  0.0000)
  14 Au     7.363335    4.253367   14.398462    ( 0.0000,  0.0000,  0.0000)
  15 Au     2.950485    6.815847   14.377761    ( 0.0000,  0.0000,  0.0000)
  16 Au     5.901930    6.822224   14.381333    ( 0.0000,  0.0000,  0.0000)
  17 Au     8.848034    6.809788   14.401160    ( 0.0000,  0.0000,  0.0000)
  18 Au     0.002211   -0.001297   16.827987    ( 0.0000,  0.0000,  0.0000)
  19 Au     2.953983    0.000439   16.848211    ( 0.0000,  0.0000,  0.0000)
  20 Au     5.910303   -0.013549   16.823701    ( 0.0000,  0.0000,  0.0000)
  21 Au     1.471160    2.558024   16.844131    ( 0.0000,  0.0000,  0.0000)
  22 Au     4.374282    2.512349   16.954013    ( 0.0000,  0.0000,  0.0000)
  23 Au     7.441867    2.553000   16.806129    ( 0.0000,  0.0000,  0.0000)
  24 Au     2.926224    5.149532   16.807270    ( 0.0000,  0.0000,  0.0000)
  25 Au     5.938231    5.172043   16.810290    ( 0.0000,  0.0000,  0.0000)
  26 Au     8.844626    5.107241   16.838784    ( 0.0000,  0.0000,  0.0000)
  27 O      5.040354    3.137131   20.008557    ( 0.0000,  0.0000,  0.0000)
  28 C      4.849712    2.968743   18.893314    ( 0.0000,  0.0000,  0.0000)

Unit cell:
           periodic     x           y           z      points  spacing
  1. axis:    yes    8.845906    0.000000    0.000000    40     0.1915
  2. axis:    yes    4.422953    7.660779    0.000000    40     0.1915
  3. axis:    yes    0.000000    0.000000   28.815101   144     0.2001

  Lengths:   8.845906   8.845906  28.815101
  Angles:   90.000000  90.000000  60.000000

Effective grid spacing dv^(1/3) = 0.2039

     iter     time        total  log10-change:
                         energy  eigst   dens
iter:   1 13:43:06   -96.725020  -2.94
iter:   2 13:43:27   -96.719169  -3.85  -3.02
iter:   3 13:43:49   -96.717804c -4.34  -3.31
iter:   4 13:44:10   -96.717184c -4.29  -3.50
iter:   5 13:44:32   -96.717002c -4.99  -3.71
iter:   6 13:44:53   -96.716971c -5.52  -3.91
iter:   7 13:45:15   -96.717007c -5.85  -4.01c
iter:   8 13:45:36   -96.717016c -6.05  -4.23c
iter:   9 13:45:58   -96.717004c -6.72  -4.36c
iter:  10 13:46:19   -96.716983c -6.59  -4.44c
iter:  11 13:46:40   -96.716986c -7.21  -4.67c
iter:  12 13:47:02   -96.716987c -7.18  -4.76c
iter:  13 13:47:23   -96.716979c -7.24  -4.93c
iter:  14 13:47:45   -96.716978c -8.11c -5.11c

Converged after 14 iterations.

Dipole moment: (-0.029238, -0.748211, 0.170229) |e|*Ang

Energy contributions relative to reference atoms: (reference = -13951221.800367)

Kinetic:       -316.570646
Potential:     +248.762924
External:        +0.000000
XC:             -34.412107
Entropy (-ST):   -0.305198
Local:           +5.655449
--------------------------
Free energy:    -96.869577
Extrapolated:   -96.716978

Showing only first 2 kpts
 Kpt  Band  Eigenvalues  Occupancy
  0   151     -1.44157    0.92257
  0   152     -1.42574    0.84452
  0   153     -1.33359    0.45063
  0   154     -1.22073    0.17198

  1   151     -2.70505    1.99999
  1   152     -2.30360    1.99958
  1   153     -2.00121    1.99137
  1   154     -1.88011    1.97132


Fermi level: -1.45709

No gap

Forces in eV/Ang:
  0 Au    0.00971    0.00635   -0.01202
  1 Au    0.00583   -0.00616    0.03410
  2 Au   -0.01821    0.01190   -0.00401
  3 Au    0.00430    0.01148    0.03509
  4 Au   -0.01264   -0.00101    0.02290
  5 Au    0.00080   -0.00313   -0.02328
  6 Au   -0.00112   -0.03146    0.00379
  7 Au   -0.00171    0.00373   -0.02048
  8 Au    0.00676    0.00482   -0.00753
  9 Au    0.01848    0.03275    0.03736
 10 Au    0.01254    0.01361   -0.02394
 11 Au    0.10142   -0.01504   -0.05128
 12 Au    0.00527    0.01015    0.00218
 13 Au    0.02013    0.10352   -0.05001
 14 Au    0.02210    0.01220   -0.01298
 15 Au   -0.02748   -0.00941    0.01836
 16 Au    0.03522    0.00576    0.02876
 17 Au    0.01019   -0.00079    0.00210
 18 Au    0.02603    0.02408   -0.04289
 19 Au   -0.05821   -0.12440    0.00807
 20 Au    0.03483   -0.05578   -0.00093
 21 Au   -0.12058    0.01570    0.00412
 22 Au    0.07224    0.07813   -0.00165
 23 Au    0.01371    0.02039    0.00213
 24 Au   -0.01801    0.04117   -0.00252
 25 Au    0.01185   -0.00728   -0.01058
 26 Au    0.02327    0.01674   -0.01304
 27 O     0.00651   -0.01121   -0.10749
 28 C    -0.03594   -0.03835    0.18330

System changes: positions 

Initializing position-dependent things.

Density initialized from wave functions
                                              
                                              
                                              
                                              
                                              
                                              
                      O                       
                                              
                     C                        
                  Au     Au     Au            
            Au      Au                        
                   Au     AAu    Au           
       Au     Au     AAu    Au                
                                              
        Au      Au    AAu    Au     Au        
                                              
                 Au     Au     Au             
                                              
           Au      Au     Au                  
                                              
                                              
                                              
                                              

Positions:
   0 Au     1.485403    0.856069   11.998621    ( 0.0000,  0.0000,  0.0000)
[...]
  20 Au     5.847573   -0.051959   16.809187    ( 0.0000,  0.0000,  0.0000)
  21 Au     1.416196    2.530231   16.839426    ( 0.0000,  0.0000,  0.0000)
  22 Au     4.222248    2.447396   16.910356    ( 0.0000,  0.0000,  0.0000)
  23 Au     7.454296    2.454372   16.973104    ( 0.0000,  0.0000,  0.0000)
  24 Au     2.882583    5.098945   16.811195    ( 0.0000,  0.0000,  0.0000)
  25 Au     5.833235    5.246666   16.968243    ( 0.0000,  0.0000,  0.0000)
  26 Au     8.843695    5.104663   16.814170    ( 0.0000,  0.0000,  0.0000)
  27 O      5.805258    3.365603   18.037276    ( 0.0000,  0.0000,  0.0000)

Unit cell:
           periodic     x           y           z      points  spacing
  1. axis:    yes    8.845906    0.000000    0.000000    40     0.1915
  2. axis:    yes    4.422953    7.660779    0.000000    40     0.1915
  3. axis:    yes    0.000000    0.000000   28.815101   144     0.2001

  Lengths:   8.845906   8.845906  28.815101
  Angles:   90.000000  90.000000  60.000000

Effective grid spacing dv^(1/3) = 0.2039

     iter     time        total  log10-change:
                         energy  eigst   dens
iter:   1 17:44:22   -86.644752  -3.26
iter:   2 17:44:43   -86.643665  -4.32  -3.28
iter:   3 17:45:04   -86.643031c -4.91  -3.41
iter:   4 17:45:25   -86.642482c -4.48  -3.52
iter:   5 17:45:46   -86.642518c -5.49  -3.89
iter:   6 17:46:08   -86.642506c -5.86  -4.01c
iter:   7 17:46:29   -86.642454c -5.89  -4.11c
iter:   8 17:46:50   -86.642454c -6.31  -4.27c
iter:   9 17:47:11   -86.642457c -6.71  -4.41c
iter:  10 17:47:32   -86.642472c -6.80  -4.51c
iter:  11 17:47:53   -86.642474c -7.20  -4.79c
iter:  12 17:48:14   -86.642470c -7.83c -4.92c

Converged after 12 iterations.

Dipole moment: (4.453678, 1.870546, -0.167386) |e|*Ang

Energy contributions relative to reference atoms: (reference = -13950194.172252)

Kinetic:       -316.477911
Potential:     +252.928930
External:        +0.000000
XC:             -28.501475
Entropy (-ST):   -0.258693
Local:           +5.537332
--------------------------
Free energy:    -86.771817
Extrapolated:   -86.642470

Showing only first 2 kpts
 Kpt  Band  Eigenvalues  Occupancy
  0   149     -1.92121    1.53743
  0   150     -1.66478    0.40741
  0   151     -1.62067    0.28263
  0   152     -1.45568    0.06128

  1   149     -2.70472    1.99976
  1   150     -2.43539    1.99649
  1   151     -2.24195    1.97594
  1   152     -2.16072    1.94660


Fermi level: -1.80111

No gap

Forces in eV/Ang:
  0 Au    0.00866    0.00176    0.01694
  1 Au    0.01351    0.01145   -0.00043
  2 Au   -0.00928    0.00411   -0.00226
  3 Au    0.01317   -0.00226   -0.00569
  4 Au   -0.00941   -0.01662   -0.00161
  5 Au    0.00671    0.01155    0.00409
  6 Au    0.00833    0.00281   -0.00707
  7 Au   -0.00198    0.00512    0.00903
  8 Au   -0.00686   -0.01060    0.01991
  9 Au   -0.00183   -0.01509    0.01291
 10 Au   -0.01242   -0.01169   -0.02300
 11 Au    0.03026   -0.02739   -0.00368
 12 Au   -0.02881   -0.00353    0.00925
 13 Au   -0.01626    0.03294   -0.01475
 14 Au   -0.01290   -0.03399   -0.03429
 15 Au   -0.00574    0.00329   -0.02118
 16 Au   -0.00927    0.00201   -0.03505
 17 Au   -0.03253   -0.01316   -0.00463
 18 Au   -0.02302    0.02865   -0.01046
 19 Au    0.05563    0.04290    0.02808
 20 Au    0.01686    0.01576    0.00674
 21 Au   -0.01853    0.01730   -0.00203
 22 Au    0.06143    0.00399    0.00323
 23 Au    0.00466    0.00603   -0.03498
 24 Au   -0.01466    0.01829    0.00194
 25 Au    0.02399   -0.09364   -0.00702
 26 Au   -0.01747   -0.01052    0.02292
 27 O     0.06497    0.04273    0.02842

System changes: numbers, positions 

Initialize ...

species:
  Au:
    name: Gold
    id: b12133f335f6ca0d89c4b1ccaa844e9a
    Z: 79.0
    valence: 11
    core: 68
    charge: 0.0
    file: /apps/Common/software/GPAW-setups/0.9.20000/Au.PBE.gz
    compensation charges: {type: gauss,
                           rc: 0.42,
                           lmax: 2}
    cutoffs: {filter: 2.33,
              core: 2.81}
    valence states:
      #              energy  rcut
      - 6s(1.00)    -5.728   1.323
      - 6p(0.00)    -0.775   1.323
      - 5d(10.00)    -6.891   1.323
      -  s          21.484   1.323
      -  p          26.436   1.323
      -  d          20.321   1.323
  
    # Using partial waves for Au as LCAO basis

  O:
    name: Oxygen
    id: 32ecd46bf208036f09c70b0ec9a88b78
    Z: 8.0
    valence: 6
    core: 2
    charge: 0.0
    file: /apps/Common/software/GPAW-setups/0.9.20000/O.PBE.gz
    compensation charges: {type: gauss,
                           rc: 0.21,
                           lmax: 2}
    cutoffs: {filter: 1.17,
              core: 0.83}
    valence states:
      #              energy  rcut
      - 2s(2.00)   -23.961   0.688
      - 2p(4.00)    -9.029   0.598
      -  s           3.251   0.688
      -  p          18.182   0.598
      -  d           0.000   0.619
  
    # Using partial waves for O as LCAO basis

  C:
    name: Carbon
    id: 4aa54d4b901d75f77cc0ea3eec22967b
    Z: 6.0
    valence: 4
    core: 2
    charge: 0.0
    file: /apps/Common/software/GPAW-setups/0.9.20000/C.PBE.gz
    compensation charges: {type: gauss,
                           rc: 0.20,
                           lmax: 2}
    cutoffs: {filter: 1.14,
              core: 1.14}
    valence states:
      #              energy  rcut
      - 2s(2.00)   -13.751   0.635
      - 2p(2.00)    -5.284   0.635
      -  s          13.461   0.635
      -  p          21.927   0.635
      -  d           0.000   0.635
  
    # Using partial waves for C as LCAO basis

Reference energy: -13951221.800367  # eV

Spin-paired calculation

Convergence criteria:
 Maximum [total energy] change in last 3 cyles: 0.0005 eV / electron
 Maximum integral of absolute [dens]ity change: 0.0001 electrons / valence electron
 Maximum integral of absolute [eigenst]ate change: 4e-08 eV^2 / valence electron
 Maximum number of scf [iter]ations: 333
 (Square brackets indicate name in SCF output, whereas a 'c' in
 the SCF output indicates the quantity has converged.)

Symmetries present (total): 1

  ( 1  0  0)
  ( 0  1  0)
  ( 0  0  1)

16 k-points: 4 x 4 x 1 Monkhorst-Pack grid
8 k-points in the irreducible part of the Brillouin zone
       k-points in crystal coordinates                weights
   0:     0.12500000   -0.37500000    0.00000000          2/16
   1:     0.12500000   -0.12500000    0.00000000          2/16
   2:     0.12500000    0.12500000    0.00000000          2/16
   3:     0.12500000    0.37500000    0.00000000          2/16
   4:     0.37500000   -0.37500000    0.00000000          2/16
   5:     0.37500000   -0.12500000    0.00000000          2/16
   6:     0.37500000    0.12500000    0.00000000          2/16
   7:     0.37500000    0.37500000    0.00000000          2/16

Wave functions: Uniform real-space grid
  Kinetic energy operator: 8*3+1=25 point O(h^6) finite-difference Laplacian
  ScaLapack parameters: grid=1x1, blocksize=None
  Wavefunction extrapolation:
    Improved wavefunction reuse through dual PAW basis 

Occupation numbers: Fermi-Dirac:
  width: 0.1000  # eV
 

Eigensolver
   Davidson(niter=2) 

Densities:
  Coarse grid: 40*40*144 grid
  Fine grid: 80*80*288 grid
  Total Charge: 0.000000 

Density mixing:
  Method: separate
  Backend: pulay
  Linear mixing parameter: 0.05
  old densities: 5
  Damping of long wavelength oscillations: 50 

Hamiltonian:
  XC and Coulomb potentials evaluated on a 80*80*288 grid
  Using the PBE Exchange-Correlation functional
  Interpolation: tri-quintic (5. degree polynomial)
  Poisson solver: FastPoissonSolver using
    Stencil: 8*3+1=25 point O(h^6) finite-difference Laplacian
    FFT axes: [0, 1, 2]
    FST axes: []
 

XC parameters: PBE with 2 nearest neighbor stencil

Memory estimate:
  Process memory now: 550.36 MiB
  Calculator: 259.18 MiB
    Density: 13.64 MiB
      Arrays: 3.12 MiB
      Localized functions: 9.29 MiB
      Mixer: 1.24 MiB
    Hamiltonian: 2.73 MiB
      Arrays: 2.04 MiB
      XC: 0.00 MiB
      Poisson: 0.00 MiB
      vbar: 0.69 MiB
    Wavefunctions: 242.81 MiB
      Arrays psit_nG: 187.34 MiB
      Eigensolver: 53.53 MiB
      Projections: 0.39 MiB
      Projectors: 1.55 MiB

Total number of cores used: 30
Parallelization over k-points: 2
Domain decomposition: 1 x 3 x 5

Number of atoms: 29
Number of atomic orbitals: 251
Number of bands in calculation: 189
Number of valence electrons: 307
Bands to converge: occupied

... initialized

Initializing position-dependent things.

Density initialized from atomic densities
Creating initial wave functions:
  189 bands from LCAO basis set

                                              
                                              
                                              
                                              
                                              
                                              
                      O                       
                                              
                     C                        
                  Au     Au     Au            
            Au     Au                         
                   Au     AAu    Au           
       Au     Au     AAu    Au                
                                              
        Au      Au    AAu    Au     Au        
                                              
                 Au     Au     Au             
                                              
           Au      Au     Au                  
                                              
                                              
                                              
                                              

Positions:
   0 Au     1.488390    0.859430   11.999014    ( 0.0000,  0.0000,  0.0000)
   1 Au     4.421760    0.852645   12.000375    ( 0.0000,  0.0000,  0.0000)
   2 Au     7.364102    0.857696   11.972327    ( 0.0000,  0.0000,  0.0000)
   3 Au     2.949721    3.406279   11.997071    ( 0.0000,  0.0000,  0.0000)
   4 Au     5.892525    3.405107   11.977910    ( 0.0000,  0.0000,  0.0000)
   5 Au     8.846403    3.403277   11.965782    ( 0.0000,  0.0000,  0.0000)
   6 Au     4.422618    5.950506   11.969834    ( 0.0000,  0.0000,  0.0000)
   7 Au     7.370636    5.962073   11.965415    ( 0.0000,  0.0000,  0.0000)
   8 Au    10.322534    5.961148   11.960634    ( 0.0000,  0.0000,  0.0000)
   9 Au     0.036953    1.706524   14.370704    ( 0.0000,  0.0000,  0.0000)
  10 Au     3.031111    1.751946   14.505163    ( 0.0000,  0.0000,  0.0000)
  11 Au     5.916738    1.726638   14.458641    ( 0.0000,  0.0000,  0.0000)
  12 Au     1.481656    4.259800   14.396698    ( 0.0000,  0.0000,  0.0000)
  13 Au     4.445411    4.271067   14.453299    ( 0.0000,  0.0000,  0.0000)
  14 Au     7.376034    4.262330   14.387027    ( 0.0000,  0.0000,  0.0000)
  15 Au     2.949444    6.822095   14.366431    ( 0.0000,  0.0000,  0.0000)
  16 Au     5.919177    6.844099   14.371019    ( 0.0000,  0.0000,  0.0000)
  17 Au     8.854393    6.816107   14.400357    ( 0.0000,  0.0000,  0.0000)
  18 Au     0.013750    0.010736   16.808485    ( 0.0000,  0.0000,  0.0000)
  19 Au     2.939470   -0.020371   16.847186    ( 0.0000,  0.0000,  0.0000)
  20 Au     5.917388   -0.018354   16.818880    ( 0.0000,  0.0000,  0.0000)
  21 Au     1.447840    2.558247   16.843211    ( 0.0000,  0.0000,  0.0000)
  22 Au     4.376349    2.525291   16.950369    ( 0.0000,  0.0000,  0.0000)
  23 Au     7.433193    2.566987   16.804592    ( 0.0000,  0.0000,  0.0000)
  24 Au     2.927296    5.159814   16.801910    ( 0.0000,  0.0000,  0.0000)
  25 Au     5.939604    5.157475   16.798275    ( 0.0000,  0.0000,  0.0000)
  26 Au     8.858595    5.119239   16.836404    ( 0.0000,  0.0000,  0.0000)
  27 O      5.037596    3.131724   20.007720    ( 0.0000,  0.0000,  0.0000)
  28 C      4.770261    2.890220   18.923720    ( 0.0000,  0.0000,  0.0000)

Unit cell:
           periodic     x           y           z      points  spacing
  1. axis:    yes    8.845906    0.000000    0.000000    40     0.1915
  2. axis:    yes    4.422953    7.660779    0.000000    40     0.1915
  3. axis:    yes    0.000000    0.000000   28.815101   144     0.2001

  Lengths:   8.845906   8.845906  28.815101
  Angles:   90.000000  90.000000  60.000000

Effective grid spacing dv^(1/3) = 0.2039

     iter     time        total  log10-change:
                         energy  eigst   dens
iter:   1 17:48:59  -103.910586
iter:   2 17:49:21  -102.647065  -0.70  -1.35
iter:   3 17:49:42   -99.537703  -1.22  -1.37
iter:   4 17:50:03   -97.214519  -1.23  -1.48
iter:   5 17:50:25   -96.933680  -1.26  -1.71
iter:   6 17:50:46   -96.904817  -2.25  -2.08
iter:   7 17:51:07   -96.818323c -2.03  -2.11
iter:   8 17:51:29   -96.915675c -2.21  -2.30
iter:   9 17:51:50   -96.737761  -2.25  -2.26
iter:  10 17:52:12   -96.739164  -3.14  -2.88
iter:  11 17:52:33   -96.735247c -3.79  -2.88
iter:  12 17:52:54   -96.736443c -3.47  -3.02
iter:  13 17:53:16   -96.733880c -3.72  -2.99
iter:  14 17:53:37   -96.734283c -4.12  -3.31
iter:  15 17:53:58   -96.733009c -4.41  -3.30
iter:  16 17:54:19   -96.732891c -4.94  -3.69
iter:  17 17:54:41   -96.732880c -5.47  -4.00
iter:  18 17:55:02   -96.732903c -5.94  -4.12c
iter:  19 17:55:23   -96.732911c -6.04  -4.28c
iter:  20 17:55:45   -96.732889c -6.47  -4.39c
iter:  21 17:56:06   -96.732887c -7.07  -4.50c
iter:  22 17:56:27   -96.732890c -6.83  -4.57c
iter:  23 17:56:49   -96.732878c -6.78  -4.76c
iter:  24 17:57:10   -96.732881c -7.63c -4.66c

Converged after 24 iterations.

Dipole moment: (2.068072, 0.512633, 0.187663) |e|*Ang

Energy contributions relative to reference atoms: (reference = -13951221.800367)

Kinetic:       -314.101408
Potential:     +246.563126
External:        +0.000000
XC:             -34.727175
Entropy (-ST):   -0.305200
Local:           +5.685175
--------------------------
Free energy:    -96.885481
Extrapolated:   -96.732881

Showing only first 2 kpts
 Kpt  Band  Eigenvalues  Occupancy
  0   151     -1.43100    0.96532
  0   152     -1.41363    0.87902
  0   153     -1.31006    0.43550
  0   154     -1.20649    0.17985

  1   151     -2.68292    1.99999
  1   152     -2.29930    1.99964
  1   153     -1.98473    1.99160
  1   154     -1.88437    1.97723


Fermi level: -1.43794

No gap
Timing:                                      incl.     excl.
-------------------------------------------------------------------
Density initialized from wave functions:    14.202    14.201   0.1% |
 Symmetrize density:                         0.001     0.001   0.0% |
Forces:                                    860.282   860.282   4.5% |-|
Hamiltonian:                                10.498     0.006   0.0% |
 Atomic:                                     0.014     0.013   0.0% |
  XC Correction:                             0.000     0.000   0.0% |
 Calculate atomic Hamiltonians:              0.013     0.013   0.0% |
 Communicate:                                4.265     4.265   0.0% |
 Hartree integrate/restrict:                 0.197     0.197   0.0% |
 Initialize Hamiltonian:                     0.001     0.001   0.0% |
 Poisson:                                    3.123     0.124   0.0% |
  Communicate from 1D:                       0.582     0.582   0.0% |
  Communicate from 2D:                       0.629     0.629   0.0% |
  Communicate to 1D:                         0.661     0.661   0.0% |
  Communicate to 2D:                         0.668     0.668   0.0% |
  FFT 1D:                                    0.147     0.147   0.0% |
  FFT 2D:                                    0.312     0.312   0.0% |
 XC 3D grid:                                 2.839     2.839   0.0% |
 vbar:                                       0.039     0.039   0.0% |
LCAO initialization:                        10.048     0.659   0.0% |
 LCAO eigensolver:                           2.249     0.007   0.0% |
  Calculate projections:                     0.000     0.000   0.0% |
  DenseAtomicCorrection:                     0.001     0.001   0.0% |
  Distribute overlap matrix:                 1.781     1.781   0.0% |
  Orbital Layouts:                           0.449     0.449   0.0% |
  Potential matrix:                          0.000     0.000   0.0% |
  Sum over cells:                            0.011     0.011   0.0% |
 LCAO to grid:                               5.677     5.677   0.0% |
 Set positions (LCAO WFS):                   1.463     1.290   0.0% |
  Basic WFS set positions:                   0.003     0.003   0.0% |
  Basis functions set positions:             0.000     0.000   0.0% |
  P tci:                                     0.003     0.003   0.0% |
  ST tci:                                    0.077     0.077   0.0% |
  mktci:                                     0.090     0.090   0.0% |
Redistribute:                                0.045     0.045   0.0% |
SCF-cycle:                               17306.730     8.451   0.0% |
 Davidson:                               16958.278  5286.186  27.7% |----------|
  Apply hamiltonian:                       566.937   566.937   3.0% ||
  Subspace diag:                          1843.562     0.400   0.0% |
   calc_h_matrix:                         1016.034   445.042   2.3% ||
    Apply hamiltonian:                     570.992   570.992   3.0% ||
   diagonalize:                             59.670    59.670   0.3% |
   rotate_psi:                             767.458   767.458   4.0% |-|
  calc. matrices:                         7123.886  2678.983  14.0% |-----|
   Apply hamiltonian:                     4444.904  4444.904  23.3% |--------|
  diagonalize:                             678.701   678.701   3.6% ||
  rotate_psi:                             1459.006  1459.006   7.6% |--|
 Density:                                   32.879     0.016   0.0% |
  Atomic density matrices:                   2.913     2.913   0.0% |
  Mix:                                       5.248     5.248   0.0% |
  Multipole moments:                         0.246     0.246   0.0% |
  Pseudo density:                           24.457    24.434   0.1% |
   Symmetrize density:                       0.023     0.023   0.0% |
 Hamiltonian:                              166.337     0.078   0.0% |
  Atomic:                                    0.204     0.201   0.0% |
   XC Correction:                            0.003     0.003   0.0% |
  Calculate atomic Hamiltonians:             0.205     0.205   0.0% |
  Communicate:                              65.966    65.966   0.3% |
  Hartree integrate/restrict:                2.102     2.102   0.0% |
  Poisson:                                  43.934     1.453   0.0% |
   Communicate from 1D:                      8.755     8.755   0.0% |
   Communicate from 2D:                      8.914     8.914   0.0% |
   Communicate to 1D:                        8.777     8.777   0.0% |
   Communicate to 2D:                        9.164     9.164   0.0% |
   FFT 1D:                                   2.226     2.226   0.0% |
   FFT 2D:                                   4.645     4.645   0.0% |
  XC 3D grid:                               53.271    53.271   0.3% |
  vbar:                                      0.576     0.576   0.0% |
 Orthonormalize:                           140.784     0.029   0.0% |
  calc_s_matrix:                            12.394    12.394   0.1% |
  inverse-cholesky:                        104.446   104.446   0.5% |
  projections:                               0.009     0.009   0.0% |
  rotate_psi_s:                             23.906    23.906   0.1% |
Set symmetry:                                0.004     0.004   0.0% |
Other:                                     891.286   891.286   4.7% |-|
-------------------------------------------------------------------
Total:                                             19093.095 100.0%

Memory usage: 552.92 MiB
Date: Sun Feb 26 17:57:10 2023
