
  ___ ___ ___ _ _ _  
 |   |   |_  | | | | 
 | | | | | . | | | | 
 |__ |  _|___|_____|  22.8.0
 |___|_|             

User:   patriku@vera38-2
Date:   Thu Feb 23 17:53:57 2023
Arch:   x86_64
Pid:    3660060
CWD:    /cephyr/users/patriku/Vera/Assignment4/test1_vera
Python: 3.10.4
gpaw:   /apps/Arch/software/GPAW/22.8.0-foss-2022a/lib/python3.10/site-packages/gpaw
_gpaw:  /apps/Arch/software/GPAW/22.8.0-foss-2022a/lib/python3.10/site-packages/
        _gpaw.cpython-310-x86_64-linux-gnu.so
ase:    /apps/Arch/software/ASE/3.22.1-foss-2022a/lib/python3.10/site-packages/ase (version 3.22.1)
numpy:  /apps/Arch/software/SciPy-bundle/2022.05-foss-2022a/lib/python3.10/site-packages/numpy (version 1.22.3)
scipy:  /apps/Arch/software/SciPy-bundle/2022.05-foss-2022a/lib/python3.10/site-packages/scipy (version 1.8.1)
libxc:  5.2.3
units:  Angstrom and eV
cores: 20
OpenMP: False
OMP_NUM_THREADS: 1

Input parameters:
  kpts: [1 1 1]
  xc: PBE

System changes: positions, numbers, cell, pbc, initial_charges, initial_magmoms 

Initialize ...

species:
  Au:
    name: Gold
    id: b12133f335f6ca0d89c4b1ccaa844e9a
    Z: 79.0
    valence: 11
    core: 68
    charge: 0.0
    file: /apps/Common/software/GPAW-setups/0.9.20000/Au.PBE.gz
    compensation charges: {type: gauss,
                           rc: 0.42,
                           lmax: 2}
    cutoffs: {filter: 2.33,
              core: 2.81}
    valence states:
      #              energy  rcut
      - 6s(1.00)    -5.728   1.323
      - 6p(0.00)    -0.775   1.323
      - 5d(10.00)    -6.891   1.323
      -  s          21.484   1.323
      -  p          26.436   1.323
      -  d          20.321   1.323
  
    # Using partial waves for Au as LCAO basis

  O:
    name: Oxygen
    id: 32ecd46bf208036f09c70b0ec9a88b78
    Z: 8.0
    valence: 6
    core: 2
    charge: 0.0
    file: /apps/Common/software/GPAW-setups/0.9.20000/O.PBE.gz
    compensation charges: {type: gauss,
                           rc: 0.21,
                           lmax: 2}
    cutoffs: {filter: 1.17,
              core: 0.83}
    valence states:
      #              energy  rcut
      - 2s(2.00)   -23.961   0.688
      - 2p(4.00)    -9.029   0.598
      -  s           3.251   0.688
      -  p          18.182   0.598
      -  d           0.000   0.619
  
    # Using partial waves for O as LCAO basis

  C:
    name: Carbon
    id: 4aa54d4b901d75f77cc0ea3eec22967b
    Z: 6.0
    valence: 4
    core: 2
    charge: 0.0
    file: /apps/Common/software/GPAW-setups/0.9.20000/C.PBE.gz
    compensation charges: {type: gauss,
                           rc: 0.20,
                           lmax: 2}
    cutoffs: {filter: 1.14,
              core: 1.14}
    valence states:
      #              energy  rcut
      - 2s(2.00)   -13.751   0.635
      - 2p(2.00)    -5.284   0.635
      -  s          13.461   0.635
      -  p          21.927   0.635
      -  d           0.000   0.635
  
    # Using partial waves for C as LCAO basis

Reference energy: -13951221.800367  # eV

Spin-paired calculation

Convergence criteria:
 Maximum [total energy] change in last 3 cyles: 0.0005 eV / electron
 Maximum integral of absolute [dens]ity change: 0.0001 electrons / valence electron
 Maximum integral of absolute [eigenst]ate change: 4e-08 eV^2 / valence electron
 Maximum number of scf [iter]ations: 333
 (Square brackets indicate name in SCF output, whereas a 'c' in
 the SCF output indicates the quantity has converged.)

Symmetries present (total): 1

  ( 1  0  0)
  ( 0  1  0)
  ( 0  0  1)

1 k-point (Gamma)
1 k-point in the irreducible part of the Brillouin zone
       k-points in crystal coordinates                weights
   0:     0.00000000    0.00000000    0.00000000          1/1

Wave functions: Uniform real-space grid
  Kinetic energy operator: 8*3+1=25 point O(h^6) finite-difference Laplacian
  ScaLapack parameters: grid=1x1, blocksize=None
  Wavefunction extrapolation:
    Improved wavefunction reuse through dual PAW basis 

Occupation numbers: Fermi-Dirac:
  width: 0.1000  # eV
 

Eigensolver
   Davidson(niter=2) 

Densities:
  Coarse grid: 40*40*144 grid
  Fine grid: 80*80*288 grid
  Total Charge: 0.000000 

Density mixing:
  Method: separate
  Backend: pulay
  Linear mixing parameter: 0.05
  old densities: 5
  Damping of long wavelength oscillations: 50 

Hamiltonian:
  XC and Coulomb potentials evaluated on a 80*80*288 grid
  Using the PBE Exchange-Correlation functional
  Interpolation: tri-quintic (5. degree polynomial)
  Poisson solver: FastPoissonSolver using
    Stencil: 8*3+1=25 point O(h^6) finite-difference Laplacian
    FFT axes: [0, 1, 2]
    FST axes: []
 

XC parameters: PBE with 2 nearest neighbor stencil

Memory estimate:
  Process memory now: 220.78 MiB
  Calculator: 50.00 MiB
    Density: 10.15 MiB
      Arrays: 2.30 MiB
      Localized functions: 6.97 MiB
      Mixer: 0.89 MiB
    Hamiltonian: 2.02 MiB
      Arrays: 1.50 MiB
      XC: 0.00 MiB
      Poisson: 0.00 MiB
      vbar: 0.52 MiB
    Wavefunctions: 37.83 MiB
      Arrays psit_nG: 16.73 MiB
      Eigensolver: 19.90 MiB
      Projections: 0.04 MiB
      Projectors: 1.16 MiB

Total number of cores used: 20
Domain decomposition: 2 x 2 x 5

Number of atoms: 29
Number of atomic orbitals: 251
Number of bands in calculation: 189
Number of valence electrons: 307
Bands to converge: occupied

... initialized

Initializing position-dependent things.

Density initialized from atomic densities
Creating initial wave functions:
  189 bands from LCAO basis set

                                              
                                              
                                              
                                              
                                              
                  Au     Au     Au            
            Au      Au     Au                 
                   Au     Au     Au           
       Au     Au     AAu    Au                
                                              
        Au     Au     AAu    Au     Au        
                                              
                 Au     Au     Au             
           Au      Au     Au                  
                        O                     
                                              
                        C                     
                                              
                                              
                                              
                                              
                                              
                                              

Positions:
   0 Au     1.474318    0.851198   12.000000    ( 0.0000,  0.0000,  0.0000)
   1 Au     4.422953    0.851198   12.000000    ( 0.0000,  0.0000,  0.0000)
   2 Au     7.371588    0.851198   12.000000    ( 0.0000,  0.0000,  0.0000)
   3 Au     2.948635    3.404791   12.000000    ( 0.0000,  0.0000,  0.0000)
   4 Au     5.897271    3.404791   12.000000    ( 0.0000,  0.0000,  0.0000)
   5 Au     8.845906    3.404791   12.000000    ( 0.0000,  0.0000,  0.0000)
   6 Au     4.422953    5.958384   12.000000    ( 0.0000,  0.0000,  0.0000)
   7 Au     7.371588    5.958384   12.000000    ( 0.0000,  0.0000,  0.0000)
   8 Au    10.320223    5.958384   12.000000    ( 0.0000,  0.0000,  0.0000)
   9 Au     0.000000    1.702395   14.407551    ( 0.0000,  0.0000,  0.0000)
  10 Au     2.948635    1.702395   14.407551    ( 0.0000,  0.0000,  0.0000)
  11 Au     5.897271    1.702395   14.407551    ( 0.0000,  0.0000,  0.0000)
  12 Au     1.474318    4.255988   14.407551    ( 0.0000,  0.0000,  0.0000)
  13 Au     4.422953    4.255988   14.407551    ( 0.0000,  0.0000,  0.0000)
  14 Au     7.371588    4.255988   14.407551    ( 0.0000,  0.0000,  0.0000)
  15 Au     2.948635    6.809581   14.407551    ( 0.0000,  0.0000,  0.0000)
  16 Au     5.897271    6.809581   14.407551    ( 0.0000,  0.0000,  0.0000)
  17 Au     8.845906    6.809581   14.407551    ( 0.0000,  0.0000,  0.0000)
  18 Au     0.000000    0.000000   16.815101    ( 0.0000,  0.0000,  0.0000)
  19 Au     2.948635    0.000000   16.815101    ( 0.0000,  0.0000,  0.0000)
  20 Au     5.897271    0.000000   16.815101    ( 0.0000,  0.0000,  0.0000)
  21 Au     1.474318    2.553593   16.815101    ( 0.0000,  0.0000,  0.0000)
  22 Au     4.422953    2.553593   16.815101    ( 0.0000,  0.0000,  0.0000)
  23 Au     7.371588    2.553593   16.815101    ( 0.0000,  0.0000,  0.0000)
  24 Au     2.948635    5.107186   16.815101    ( 0.0000,  0.0000,  0.0000)
  25 Au     5.897271    5.107186   16.815101    ( 0.0000,  0.0000,  0.0000)
  26 Au     8.845906    5.107186   16.815101    ( 0.0000,  0.0000,  0.0000)
  27 O      6.000000    4.000000    9.575170    ( 0.0000,  0.0000,  0.0000)
  28 C      6.000000    4.000000    8.424830    ( 0.0000,  0.0000,  0.0000)

Unit cell:
           periodic     x           y           z      points  spacing
  1. axis:    yes    8.845906    0.000000    0.000000    40     0.1915
  2. axis:    yes    4.422953    7.660779    0.000000    40     0.1915
  3. axis:    yes    0.000000    0.000000   28.815101   144     0.2001

  Lengths:   8.845906   8.845906  28.815101
  Angles:   90.000000  90.000000  60.000000

Effective grid spacing dv^(1/3) = 0.2039

     iter     time        total  log10-change:
                         energy  eigst   dens
iter:   1 17:54:02  -106.340194
iter:   2 17:54:04  -105.511309  -0.71  -1.34
iter:   3 17:54:07  -102.401555  -1.28  -1.36
iter:   4 17:54:09   -99.937154  -1.04  -1.47
iter:   5 17:54:11   -99.838707  -1.46  -1.77
iter:   6 17:54:14   -99.881118c -2.05  -2.03
iter:   7 17:54:16   -99.779230c -2.10  -2.11
iter:   8 17:54:18   -99.713852  -3.07  -2.43
iter:   9 17:54:21   -99.687082c -2.81  -2.60
iter:  10 17:54:23   -99.684022c -3.44  -2.79
iter:  11 17:54:26   -99.683827c -3.97  -2.89
iter:  12 17:54:28   -99.686094c -3.89  -2.93
iter:  13 17:54:30   -99.686888c -4.45  -3.09
iter:  14 17:54:33   -99.686840c -5.13  -3.17
iter:  15 17:54:35   -99.686396c -4.26  -3.21
iter:  16 17:54:37   -99.687044c -4.69  -3.50
iter:  17 17:54:40   -99.686620c -5.85  -3.57
iter:  18 17:54:42   -99.685622c -5.23  -3.62
iter:  19 17:54:44   -99.686116c -5.91  -3.81
iter:  20 17:54:47   -99.685891c -6.16  -4.07c
iter:  21 17:54:49   -99.685847c -6.42  -4.12c
iter:  22 17:54:52   -99.685947c -6.45  -4.22c
iter:  23 17:54:54   -99.685914c -6.55  -4.63c
iter:  24 17:54:56   -99.685975c -7.02  -4.66c
iter:  25 17:54:59   -99.686028c -7.35  -4.84c
iter:  26 17:55:01   -99.686021c -8.10c -5.01c

Converged after 26 iterations.

Dipole moment: (-2.937674, -1.651106, -0.129115) |e|*Ang

Energy contributions relative to reference atoms: (reference = -13951221.800367)

Kinetic:       -320.755961
Potential:     +251.892488
External:        +0.000000
XC:             -36.012327
Entropy (-ST):   -0.809523
Local:           +5.594541
--------------------------
Free energy:   -100.090782
Extrapolated:   -99.686021

 Band  Eigenvalues  Occupancy
    0    -26.18960    2.00000
    1    -11.88713    2.00000
    2     -9.56381    2.00000
    3     -8.95916    2.00000
    4     -8.93074    2.00000
    5     -7.95183    2.00000
    6     -7.63331    2.00000
    7     -7.52372    2.00000
    8     -7.52303    2.00000
    9     -7.52114    2.00000
   10     -7.51279    2.00000
   11     -7.51045    2.00000
   12     -7.50969    2.00000
   13     -6.90777    2.00000
   14     -6.90689    2.00000
   15     -6.90316    2.00000
   16     -6.88879    2.00000
   17     -6.88685    2.00000
   18     -6.88566    2.00000
   19     -6.71675    2.00000
   20     -6.70936    2.00000
   21     -6.70916    2.00000
   22     -6.70125    2.00000
   23     -6.69917    2.00000
   24     -6.69788    2.00000
   25     -6.37547    2.00000
   26     -6.36740    2.00000
   27     -6.35940    2.00000
   28     -6.34995    2.00000
   29     -6.34907    2.00000
   30     -6.34050    2.00000
   31     -6.29476    2.00000
   32     -6.28244    2.00000
   33     -6.28012    2.00000
   34     -6.26048    2.00000
   35     -6.25342    2.00000
   36     -6.25309    2.00000
   37     -6.19878    2.00000
   38     -5.85605    2.00000
   39     -5.85368    2.00000
   40     -5.84838    2.00000
   41     -5.84536    2.00000
   42     -5.54366    2.00000
   43     -5.54138    2.00000
   44     -5.53447    2.00000
   45     -5.52325    2.00000
   46     -5.52080    2.00000
   47     -5.51099    2.00000
   48     -5.45593    2.00000
   49     -5.37181    2.00000
   50     -5.37147    2.00000
   51     -5.35162    2.00000
   52     -5.35074    2.00000
   53     -5.34782    2.00000
   54     -5.33343    2.00000
   55     -5.33056    2.00000
   56     -5.32441    2.00000
   57     -5.08449    2.00000
   58     -5.08350    2.00000
   59     -5.02110    2.00000
   60     -4.99187    2.00000
   61     -4.98882    2.00000
   62     -4.96417    2.00000
   63     -4.96157    2.00000
   64     -4.94298    2.00000
   65     -4.93656    2.00000
   66     -4.93331    2.00000
   67     -4.93204    2.00000
   68     -4.92207    2.00000
   69     -4.91643    2.00000
   70     -4.91115    2.00000
   71     -4.90742    2.00000
   72     -4.90682    2.00000
   73     -4.88554    2.00000
   74     -4.76493    2.00000
   75     -4.76349    2.00000
   76     -4.74089    2.00000
   77     -4.73722    2.00000
   78     -4.72750    2.00000
   79     -4.72280    2.00000
   80     -4.70036    2.00000
   81     -4.69866    2.00000
   82     -4.69278    2.00000
   83     -4.68799    2.00000
   84     -4.27697    2.00000
   85     -4.27155    2.00000
   86     -4.24505    2.00000
   87     -4.23927    2.00000
   88     -4.23875    2.00000
   89     -4.22167    2.00000
   90     -4.09029    2.00000
   91     -4.08571    2.00000
   92     -4.06155    2.00000
   93     -4.06085    2.00000
   94     -4.02919    2.00000
   95     -4.02649    2.00000
   96     -4.01852    2.00000
   97     -4.01748    2.00000
   98     -4.00854    2.00000
   99     -3.99909    2.00000
  100     -3.99789    2.00000
  101     -3.99420    2.00000
  102     -3.91666    2.00000
  103     -3.87925    2.00000
  104     -3.87574    2.00000
  105     -3.87368    2.00000
  106     -3.86992    2.00000
  107     -3.86494    2.00000
  108     -3.62695    1.99995
  109     -3.61770    1.99994
  110     -3.61197    1.99994
  111     -3.60587    1.99994
  112     -3.60271    1.99993
  113     -3.59520    1.99993
  114     -3.56961    1.99991
  115     -3.56642    1.99990
  116     -3.54858    1.99989
  117     -3.53904    1.99987
  118     -3.53687    1.99987
  119     -3.53114    1.99986
  120     -3.51818    1.99984
  121     -3.51771    1.99984
  122     -3.36390    1.99927
  123     -3.35402    1.99920
  124     -3.34793    1.99915
  125     -3.34260    1.99910
  126     -3.29034    1.99848
  127     -3.28946    1.99847
  128     -3.26179    1.99798
  129     -3.25298    1.99780
  130     -3.25272    1.99779
  131     -3.24936    1.99772
  132     -3.23024    1.99723
  133     -3.22454    1.99707
  134     -3.17713    1.99530
  135     -3.17669    1.99528
  136     -3.15713    1.99426
  137     -3.15285    1.99401
  138     -3.15031    1.99386
  139     -3.14774    1.99370
  140     -3.11153    1.99097
  141     -3.11140    1.99095
  142     -2.99525    1.97139
  143     -2.99238    1.97056
  144     -2.97889    1.96638
  145     -2.97640    1.96555
  146     -2.97583    1.96536
  147     -2.97278    1.96430
  148     -2.75856    1.73190
  149     -2.74874    1.70829
  150     -2.74492    1.69864
  151     -2.73383    1.66914
  152     -2.73122    1.66187
  153     -2.72628    1.64777
  154     -2.60276    1.15264
  155     -0.71880    0.00000
  156     -0.25604    0.00000
  157     -0.24940    0.00000
  158     -0.23168    0.00000
  159     -0.22916    0.00000
  160     -0.22027    0.00000
  161     -0.07626    0.00000
  162      0.68936    0.00000
  163      0.70334    0.00000
  164      1.72229    0.00000
  165      1.72986    0.00000
  166      1.96577    0.00000
  167      1.97744    0.00000
  168      1.98861    0.00000
  169      1.99070    0.00000
  170      2.94842    0.00000
  171      3.34556    0.00000
  172      3.34959    0.00000
  173      3.35914    0.00000
  174      3.36956    0.00000
  175      3.37360    0.00000
  176      3.38188    0.00000
  177      3.63341    0.00000
  178      3.78072    0.00000
  179      4.04677    0.00000
  180      4.04804    0.00000
  181      4.05626    0.00000
  182      4.06215    0.00000
  183      4.06570    0.00000
  184      4.15736    0.00000
  185      5.06472    0.00000
  186      5.10820    0.00000
  187      5.13161    0.00000
  188      5.13834    0.00000

Fermi level: -2.57199

Gap: 1.884 eV
Transition (v -> c):
  (s=0, k=0, n=154, [0.00, 0.00, 0.00]) -> (s=0, k=0, n=155, [0.00, 0.00, 0.00])

Forces in eV/Ang:
  0 Au    0.01150   -0.00566    0.40904
  1 Au   -0.03869   -0.08122    0.40135
  2 Au    0.02865   -0.04470    0.40301
  3 Au   -0.13184    0.00632    0.43649
  4 Au   -0.00714   -0.20684    0.96031
  5 Au    0.12955   -0.04337    0.45024
  6 Au   -0.10056    0.14632    0.49124
  7 Au    0.08558    0.20073    0.50913
  8 Au    0.01943   -0.00598    0.35915
  9 Au   -0.01580    0.02624    0.01098
 10 Au   -0.01130   -0.00350    0.01305
 11 Au    0.02582   -0.00753   -0.04393
 12 Au    0.02315   -0.00085    0.03459
 13 Au   -0.04358    0.04968   -0.01638
 14 Au    0.02410    0.00791   -0.01057
 15 Au    0.00016   -0.02543    0.03782
 16 Au    0.01184   -0.02924   -0.00326
 17 Au   -0.01170    0.00776    0.03672
 18 Au    0.02969    0.00447   -0.45314
 19 Au   -0.03318   -0.00011   -0.42989
 20 Au    0.00320    0.10847   -0.45219
 21 Au   -0.00661   -0.00700   -0.43366
 22 Au   -0.01369   -0.01194   -0.40539
 23 Au    0.02044   -0.02411   -0.40068
 24 Au    0.07200   -0.05324   -0.41873
 25 Au   -0.00791    0.04324   -0.39844
 26 Au   -0.06302   -0.05304   -0.41548
 27 O     0.00469    0.01654   -1.79872
 28 C     0.01011   -0.00627    1.19963

System changes: positions 

Initializing position-dependent things.

Density initialized from wave functions
                                              
                                              
                                              
                                              
                                              
                  Au     Au     Au            
            Au      Au     Au                 
                   Au     Au     Au           
       Au     Au     AAu    Au                
                                              
        Au     Au     AAu    Au     Au        
                                              
                 Au     Au     Au             
           Au      Au     Au                  
                        O                     
                                              
                        C                     
                                              
                                              
                                              
                                              
                                              
                                              

Positions:
   0 Au     1.474482    0.851117   12.005843    ( 0.0000,  0.0000,  0.0000)
   1 Au     4.422400    0.850037   12.005734    ( 0.0000,  0.0000,  0.0000)
   2 Au     7.371998    0.850559   12.005757    ( 0.0000,  0.0000,  0.0000)
   3 Au     2.946752    3.404881   12.006236    ( 0.0000,  0.0000,  0.0000)
   4 Au     5.897169    3.401836   12.013719    ( 0.0000,  0.0000,  0.0000)
   5 Au     8.847757    3.404171   12.006432    ( 0.0000,  0.0000,  0.0000)
   6 Au     4.421516    5.960474   12.007018    ( 0.0000,  0.0000,  0.0000)
   7 Au     7.372811    5.961251   12.007273    ( 0.0000,  0.0000,  0.0000)
   8 Au    10.320501    5.958298   12.005131    ( 0.0000,  0.0000,  0.0000)
   9 Au    -0.000226    1.702770   14.407707    ( 0.0000,  0.0000,  0.0000)
  10 Au     2.948474    1.702345   14.407737    ( 0.0000,  0.0000,  0.0000)
  11 Au     5.897639    1.702288   14.406923    ( 0.0000,  0.0000,  0.0000)
  12 Au     1.474648    4.255976   14.408045    ( 0.0000,  0.0000,  0.0000)
  13 Au     4.422330    4.256698   14.407317    ( 0.0000,  0.0000,  0.0000)
  14 Au     7.371932    4.256101   14.407400    ( 0.0000,  0.0000,  0.0000)
  15 Au     2.948638    6.809218   14.408091    ( 0.0000,  0.0000,  0.0000)
  16 Au     5.897440    6.809164   14.407504    ( 0.0000,  0.0000,  0.0000)
  17 Au     8.845739    6.809692   14.408075    ( 0.0000,  0.0000,  0.0000)
  18 Au     0.000424    0.000064   16.808628    ( 0.0000,  0.0000,  0.0000)
  19 Au     2.948161   -0.000002   16.808960    ( 0.0000,  0.0000,  0.0000)
  20 Au     5.897316    0.001550   16.808641    ( 0.0000,  0.0000,  0.0000)
  21 Au     1.474223    2.553493   16.808906    ( 0.0000,  0.0000,  0.0000)
  22 Au     4.422757    2.553422   16.809310    ( 0.0000,  0.0000,  0.0000)
  23 Au     7.371880    2.553249   16.809377    ( 0.0000,  0.0000,  0.0000)
  24 Au     2.949664    5.106426   16.809119    ( 0.0000,  0.0000,  0.0000)
  25 Au     5.897158    5.107804   16.809409    ( 0.0000,  0.0000,  0.0000)
  26 Au     8.845006    5.106428   16.809166    ( 0.0000,  0.0000,  0.0000)
  27 O      6.000067    4.000236    9.549474    ( 0.0000,  0.0000,  0.0000)
  28 C      6.000144    3.999910    8.441968    ( 0.0000,  0.0000,  0.0000)

Unit cell:
           periodic     x           y           z      points  spacing
  1. axis:    yes    8.845906    0.000000    0.000000    40     0.1915
  2. axis:    yes    4.422953    7.660779    0.000000    40     0.1915
  3. axis:    yes    0.000000    0.000000   28.815101   144     0.2001

  Lengths:   8.845906   8.845906  28.815101
  Angles:   90.000000  90.000000  60.000000

Effective grid spacing dv^(1/3) = 0.2039

     iter     time        total  log10-change:
                         energy  eigst   dens
iter:   1 17:55:09   -99.951530  -1.95
iter:   2 17:55:11   -99.801906  -2.80  -2.36
iter:   3 17:55:14   -99.771580  -3.27  -2.76
iter:   4 17:55:16   -99.718261c -3.12  -2.91
iter:   5 17:55:18   -99.708202c -3.38  -3.07
iter:   6 17:55:21   -99.709369c -3.80  -3.10
iter:   7 17:55:23   -99.706817c -4.18  -3.25
iter:   8 17:55:26   -99.705865c -4.51  -3.48
iter:   9 17:55:28   -99.706381c -4.77  -3.60
iter:  10 17:55:30   -99.706528c -5.10  -3.74
iter:  11 17:55:33   -99.706444c -5.87  -3.88
iter:  12 17:55:35   -99.706260c -5.61  -3.95
iter:  13 17:55:37   -99.706315c -6.08  -4.20c
iter:  14 17:55:40   -99.706251c -6.86  -4.29c
iter:  15 17:55:42   -99.706037c -6.78  -4.33c
iter:  16 17:55:45   -99.705936c -7.00  -4.50c
iter:  17 17:55:47   -99.705998c -6.86  -4.67c
iter:  18 17:55:49   -99.706049c -7.37  -4.80c
iter:  19 17:55:52   -99.706052c -7.73c -4.81c

Converged after 19 iterations.

Dipole moment: (-3.123555, -1.752043, -0.082543) |e|*Ang

Energy contributions relative to reference atoms: (reference = -13951221.800367)

Kinetic:       -312.160727
Potential:     +244.883749
External:        +0.000000
XC:             -37.632754
Entropy (-ST):   -0.812696
Local:           +5.610026
--------------------------
Free energy:   -100.112400
Extrapolated:   -99.706052

 Band  Eigenvalues  Occupancy
    0    -26.74829    2.00000
    1    -11.79841    2.00000
    2     -9.61150    2.00000
    3     -9.27576    2.00000
    4     -9.24948    2.00000
    5     -7.98633    2.00000
    6     -7.67125    2.00000
    7     -7.57092    2.00000
    8     -7.57011    2.00000
    9     -7.56855    2.00000
   10     -7.56022    2.00000
   11     -7.55807    2.00000
   12     -7.55722    2.00000
   13     -6.95134    2.00000
   14     -6.94927    2.00000
   15     -6.94349    2.00000
   16     -6.93288    2.00000
   17     -6.93089    2.00000
   18     -6.92993    2.00000
   19     -6.75997    2.00000
   20     -6.75268    2.00000
   21     -6.75174    2.00000
   22     -6.74540    2.00000
   23     -6.74299    2.00000
   24     -6.74270    2.00000
   25     -6.41912    2.00000
   26     -6.41503    2.00000
   27     -6.40082    2.00000
   28     -6.39809    2.00000
   29     -6.39572    2.00000
   30     -6.38884    2.00000
   31     -6.31742    2.00000
   32     -6.31681    2.00000
   33     -6.31119    2.00000
   34     -6.29282    2.00000
   35     -6.29149    2.00000
   36     -6.29034    2.00000
   37     -6.06870    2.00000
   38     -5.90013    2.00000
   39     -5.89826    2.00000
   40     -5.89327    2.00000
   41     -5.88686    2.00000
   42     -5.58162    2.00000
   43     -5.57777    2.00000
   44     -5.56936    2.00000
   45     -5.56122    2.00000
   46     -5.55943    2.00000
   47     -5.54837    2.00000
   48     -5.48297    2.00000
   49     -5.41250    2.00000
   50     -5.41230    2.00000
   51     -5.38364    2.00000
   52     -5.38201    2.00000
   53     -5.37955    2.00000
   54     -5.36739    2.00000
   55     -5.36487    2.00000
   56     -5.35997    2.00000
   57     -5.12164    2.00000
   58     -5.11908    2.00000
   59     -5.05426    2.00000
   60     -5.03357    2.00000
   61     -5.03006    2.00000
   62     -5.00981    2.00000
   63     -5.00682    2.00000
   64     -4.98918    2.00000
   65     -4.98456    2.00000
   66     -4.98071    2.00000
   67     -4.97992    2.00000
   68     -4.95768    2.00000
   69     -4.95249    2.00000
   70     -4.94665    2.00000
   71     -4.94403    2.00000
   72     -4.94318    2.00000
   73     -4.92449    2.00000
   74     -4.79586    2.00000
   75     -4.79459    2.00000
   76     -4.77427    2.00000
   77     -4.77056    2.00000
   78     -4.76006    2.00000
   79     -4.75622    2.00000
   80     -4.73361    2.00000
   81     -4.73260    2.00000
   82     -4.72549    2.00000
   83     -4.72220    2.00000
   84     -4.30862    2.00000
   85     -4.30299    2.00000
   86     -4.27685    2.00000
   87     -4.27217    2.00000
   88     -4.27074    2.00000
   89     -4.25394    2.00000
   90     -4.11624    2.00000
   91     -4.11128    2.00000
   92     -4.08928    2.00000
   93     -4.08850    2.00000
   94     -4.06493    2.00000
   95     -4.06175    2.00000
   96     -4.05303    2.00000
   97     -4.05261    2.00000
   98     -4.04791    2.00000
   99     -4.03843    2.00000
  100     -4.03705    2.00000
  101     -4.03345    2.00000
  102     -3.94564    2.00000
  103     -3.91293    2.00000
  104     -3.90882    2.00000
  105     -3.90673    2.00000
  106     -3.90397    2.00000
  107     -3.89709    2.00000
  108     -3.65380    1.99995
  109     -3.64723    1.99994
  110     -3.64095    1.99994
  111     -3.63414    1.99994
  112     -3.63147    1.99993
  113     -3.62442    1.99993
  114     -3.60169    1.99991
  115     -3.59817    1.99991
  116     -3.58324    1.99989
  117     -3.57296    1.99988
  118     -3.57068    1.99988
  119     -3.56567    1.99987
  120     -3.55322    1.99986
  121     -3.55288    1.99986
  122     -3.39048    1.99927
  123     -3.38108    1.99919
  124     -3.37489    1.99914
  125     -3.37016    1.99910
  126     -3.32059    1.99853
  127     -3.31900    1.99850
  128     -3.29323    1.99806
  129     -3.28446    1.99789
  130     -3.28277    1.99785
  131     -3.27992    1.99779
  132     -3.25636    1.99720
  133     -3.25048    1.99703
  134     -3.20834    1.99548
  135     -3.20736    1.99543
  136     -3.19145    1.99465
  137     -3.18440    1.99426
  138     -3.18252    1.99415
  139     -3.17947    1.99397
  140     -3.13788    1.99087
  141     -3.13774    1.99086
  142     -3.02114    1.97097
  143     -3.01778    1.96999
  144     -3.00583    1.96624
  145     -3.00291    1.96526
  146     -3.00228    1.96504
  147     -2.99966    1.96413
  148     -2.78391    1.72719
  149     -2.77443    1.70408
  150     -2.76961    1.69170
  151     -2.76001    1.66585
  152     -2.75780    1.65965
  153     -2.75230    1.64382
  154     -2.63539    1.17820
  155     -0.74173    0.00000
  156     -0.26291    0.00000
  157     -0.25940    0.00000
  158     -0.24608    0.00000
  159     -0.24197    0.00000
  160     -0.23297    0.00000
  161     -0.09223    0.00000
  162      1.13841    0.00000
  163      1.14922    0.00000
  164      1.69048    0.00000
  165      1.70252    0.00000
  166      1.93264    0.00000
  167      1.94744    0.00000
  168      1.95603    0.00000
  169      1.95742    0.00000
  170      2.96624    0.00000
  171      3.32688    0.00000
  172      3.33168    0.00000
  173      3.34834    0.00000
  174      3.35007    0.00000
  175      3.35739    0.00000
  176      3.36368    0.00000
  177      3.57857    0.00000
  178      3.65395    0.00000
  179      4.01573    0.00000
  180      4.01796    0.00000
  181      4.02706    0.00000
  182      4.03258    0.00000
  183      4.03755    0.00000
  184      4.09156    0.00000
  185      4.41365    0.00000
  186      5.05042    0.00000
  187      5.08839    0.00000
  188      5.11246    0.00000

Fermi level: -2.59936

Gap: 1.894 eV
Transition (v -> c):
  (s=0, k=0, n=154, [0.00, 0.00, 0.00]) -> (s=0, k=0, n=155, [0.00, 0.00, 0.00])

Forces in eV/Ang:
  0 Au    0.00809   -0.00572    0.38408
  1 Au   -0.03557   -0.06902    0.37385
  2 Au    0.02599   -0.03911    0.37616
  3 Au   -0.11234    0.00293    0.40611
  4 Au    0.00026   -0.18056    0.88827
  5 Au    0.11502   -0.03860    0.42174
  6 Au   -0.08465    0.12148    0.45646
  7 Au    0.07378    0.17823    0.47581
  8 Au    0.01842   -0.00513    0.34073
  9 Au   -0.01430    0.02177    0.00961
 10 Au   -0.00950   -0.00342    0.01161
 11 Au    0.02266   -0.01349   -0.02811
 12 Au    0.02063    0.00215    0.03425
 13 Au   -0.04235    0.04648   -0.00876
 14 Au    0.02318    0.00929   -0.00431
 15 Au   -0.00331   -0.02178    0.03734
 16 Au    0.00963   -0.02603   -0.00238
 17 Au   -0.00681    0.00770    0.03725
 18 Au    0.02608    0.00353   -0.40768
 19 Au   -0.02866   -0.00073   -0.40823
 20 Au    0.00220    0.09460   -0.43224
 21 Au   -0.00578   -0.00466   -0.41130
 22 Au   -0.00990   -0.01046   -0.38550
 23 Au    0.01518   -0.02068   -0.38132
 24 Au    0.06089   -0.04658   -0.39807
 25 Au   -0.00718    0.03618   -0.37938
 26 Au   -0.05708   -0.04872   -0.39463
 27 O     0.02714   -0.01511    3.33953
 28 C     0.00954    0.00531   -3.94101

System changes: positions 

Initializing position-dependent things.

Density initialized from wave functions
                                              
                                              
                                              
                                              
                                              
                  Au     Au     Au            
            Au      Au     Au                 
                   Au     Au     Au           
       Au     Au     AAu    Au                
                                              
        Au     Au     AAu    Au     Au        
                                              
                 Au     Au     Au             
           Au      Au     Au                  
                        O                     
                                              
                        C                     
                                              
                                              
                                              
                                              
                                              
                                              

Positions:
   0 Au     1.474699    0.850996   12.014337    ( 0.0000,  0.0000,  0.0000)
   1 Au     4.421603    0.848410   12.014043    ( 0.0000,  0.0000,  0.0000)
   2 Au     7.372585    0.849654   12.014107    ( 0.0000,  0.0000,  0.0000)
   3 Au     2.944108    3.404988   12.015268    ( 0.0000,  0.0000,  0.0000)
   4 Au     5.897077    3.397652   12.033549    ( 0.0000,  0.0000,  0.0000)
   5 Au     8.850393    3.403288   12.015772    ( 0.0000,  0.0000,  0.0000)
   6 Au     4.419508    5.963383   12.017179    ( 0.0000,  0.0000,  0.0000)
   7 Au     7.374534    5.965336   12.017827    ( 0.0000,  0.0000,  0.0000)
   8 Au    10.320906    5.958178   12.012616    ( 0.0000,  0.0000,  0.0000)
   9 Au    -0.000549    1.703292   14.407930    ( 0.0000,  0.0000,  0.0000)
  10 Au     2.948248    1.702272   14.408003    ( 0.0000,  0.0000,  0.0000)
  11 Au     5.898163    1.702079   14.406118    ( 0.0000,  0.0000,  0.0000)
  12 Au     1.475120    4.255983   14.408777    ( 0.0000,  0.0000,  0.0000)
  13 Au     4.421414    4.257728   14.407030    ( 0.0000,  0.0000,  0.0000)
  14 Au     7.372437    4.256281   14.407226    ( 0.0000,  0.0000,  0.0000)
  15 Au     2.948613    6.808707   14.408891    ( 0.0000,  0.0000,  0.0000)
  16 Au     5.897673    6.808568   14.407442    ( 0.0000,  0.0000,  0.0000)
  17 Au     8.845530    6.809857   14.408860    ( 0.0000,  0.0000,  0.0000)
  18 Au     0.001026    0.000151   16.799364    ( 0.0000,  0.0000,  0.0000)
  19 Au     2.947493   -0.000009   16.799997    ( 0.0000,  0.0000,  0.0000)
  20 Au     5.897376    0.003743   16.799190    ( 0.0000,  0.0000,  0.0000)
  21 Au     1.474089    2.553363   16.799868    ( 0.0000,  0.0000,  0.0000)
  22 Au     4.422497    2.553181   16.800853    ( 0.0000,  0.0000,  0.0000)
  23 Au     7.372272    2.552764   16.801016    ( 0.0000,  0.0000,  0.0000)
  24 Au     2.951104    5.105348   16.800385    ( 0.0000,  0.0000,  0.0000)
  25 Au     5.896995    5.108666   16.801093    ( 0.0000,  0.0000,  0.0000)
  26 Au     8.843714    5.105336   16.800502    ( 0.0000,  0.0000,  0.0000)
  27 O      6.000350    4.000330    9.553053    ( 0.0000,  0.0000,  0.0000)
  28 C      6.000355    3.999871    8.425632    ( 0.0000,  0.0000,  0.0000)

Unit cell:
           periodic     x           y           z      points  spacing
  1. axis:    yes    8.845906    0.000000    0.000000    40     0.1915
  2. axis:    yes    4.422953    7.660779    0.000000    40     0.1915
  3. axis:    yes    0.000000    0.000000   28.815101   144     0.2001

  Lengths:   8.845906   8.845906  28.815101
  Angles:   90.000000  90.000000  60.000000

Effective grid spacing dv^(1/3) = 0.2039

     iter     time        total  log10-change:
                         energy  eigst   dens
iter:   1 17:56:00  -100.071799  -1.89
iter:   2 17:56:02   -99.929227  -3.03  -2.26
iter:   3 17:56:05   -99.856151  -2.92  -2.40
iter:   4 17:56:07   -99.844026c -3.02  -2.77
iter:   5 17:56:10   -99.837757c -3.53  -3.17
iter:   6 17:56:12   -99.836669c -4.06  -3.25
iter:   7 17:56:15   -99.836883c -4.60  -3.34
iter:   8 17:56:17   -99.836974c -4.88  -3.48
iter:   9 17:56:19   -99.835791c -4.88  -3.61
iter:  10 17:56:22   -99.835763c -5.54  -3.94
iter:  11 17:56:24   -99.836084c -5.64  -3.98
iter:  12 17:56:26   -99.836027c -6.33  -4.23c
iter:  13 17:56:29   -99.836188c -6.45  -4.33c
iter:  14 17:56:31   -99.836255c -6.83  -4.48c
iter:  15 17:56:34   -99.836189c -6.79  -4.57c
iter:  16 17:56:36   -99.836186c -7.48c -4.79c

Converged after 16 iterations.

Dipole moment: (-3.387028, -1.887282, -0.095580) |e|*Ang

Energy contributions relative to reference atoms: (reference = -13951221.800367)

Kinetic:       -311.068479
Potential:     +243.714119
External:        +0.000000
XC:             -37.699531
Entropy (-ST):   -0.808842
Local:           +5.622126
--------------------------
Free energy:   -100.240607
Extrapolated:   -99.836186

 Band  Eigenvalues  Occupancy
    0    -26.44623    2.00000
    1    -11.75518    2.00000
    2     -9.63080    2.00000
    3     -9.08144    2.00000
    4     -9.05520    2.00000
    5     -7.98818    2.00000
    6     -7.67660    2.00000
    7     -7.59123    2.00000
    8     -7.59020    2.00000
    9     -7.58746    2.00000
   10     -7.57868    2.00000
   11     -7.57454    2.00000
   12     -7.57439    2.00000
   13     -6.96602    2.00000
   14     -6.96291    2.00000
   15     -6.95640    2.00000
   16     -6.94605    2.00000
   17     -6.94315    2.00000
   18     -6.94229    2.00000
   19     -6.77598    2.00000
   20     -6.76652    2.00000
   21     -6.76405    2.00000
   22     -6.75945    2.00000
   23     -6.75604    2.00000
   24     -6.75533    2.00000
   25     -6.44175    2.00000
   26     -6.43473    2.00000
   27     -6.42075    2.00000
   28     -6.41751    2.00000
   29     -6.41298    2.00000
   30     -6.40755    2.00000
   31     -6.32031    2.00000
   32     -6.31886    2.00000
   33     -6.31142    2.00000
   34     -6.29766    2.00000
   35     -6.29497    2.00000
   36     -6.29290    2.00000
   37     -6.11263    2.00000
   38     -5.91431    2.00000
   39     -5.91237    2.00000
   40     -5.90730    2.00000
   41     -5.90159    2.00000
   42     -5.58882    2.00000
   43     -5.58405    2.00000
   44     -5.57120    2.00000
   45     -5.56731    2.00000
   46     -5.56552    2.00000
   47     -5.55301    2.00000
   48     -5.47122    2.00000
   49     -5.42079    2.00000
   50     -5.42064    2.00000
   51     -5.38097    2.00000
   52     -5.37650    2.00000
   53     -5.37505    2.00000
   54     -5.36459    2.00000
   55     -5.36217    2.00000
   56     -5.35885    2.00000
   57     -5.12759    2.00000
   58     -5.12222    2.00000
   59     -5.05549    2.00000
   60     -5.04518    2.00000
   61     -5.04231    2.00000
   62     -5.02550    2.00000
   63     -5.02351    2.00000
   64     -5.00576    2.00000
   65     -5.00282    2.00000
   66     -4.99766    2.00000
   67     -4.99665    2.00000
   68     -4.95869    2.00000
   69     -4.95364    2.00000
   70     -4.94745    2.00000
   71     -4.94640    2.00000
   72     -4.94476    2.00000
   73     -4.92796    2.00000
   74     -4.79335    2.00000
   75     -4.79231    2.00000
   76     -4.77302    2.00000
   77     -4.76965    2.00000
   78     -4.75819    2.00000
   79     -4.75369    2.00000
   80     -4.73105    2.00000
   81     -4.73088    2.00000
   82     -4.72214    2.00000
   83     -4.72055    2.00000
   84     -4.30575    2.00000
   85     -4.29954    2.00000
   86     -4.27330    2.00000
   87     -4.26878    2.00000
   88     -4.26605    2.00000
   89     -4.24854    2.00000
   90     -4.10745    2.00000
   91     -4.10126    2.00000
   92     -4.07945    2.00000
   93     -4.07689    2.00000
   94     -4.06742    2.00000
   95     -4.06390    2.00000
   96     -4.05677    2.00000
   97     -4.05105    2.00000
   98     -4.05063    2.00000
   99     -4.04418    2.00000
  100     -4.04229    2.00000
  101     -4.03853    2.00000
  102     -3.94240    2.00000
  103     -3.91224    2.00000
  104     -3.90659    2.00000
  105     -3.90484    2.00000
  106     -3.90244    2.00000
  107     -3.89236    2.00000
  108     -3.64424    1.99995
  109     -3.64025    1.99995
  110     -3.63245    1.99994
  111     -3.62462    1.99994
  112     -3.62155    1.99994
  113     -3.61476    1.99993
  114     -3.60026    1.99992
  115     -3.59622    1.99992
  116     -3.58341    1.99991
  117     -3.57116    1.99989
  118     -3.56849    1.99989
  119     -3.56375    1.99989
  120     -3.55271    1.99987
  121     -3.55250    1.99987
  122     -3.37850    1.99928
  123     -3.36982    1.99921
  124     -3.36361    1.99916
  125     -3.35977    1.99913
  126     -3.31835    1.99868
  127     -3.31542    1.99864
  128     -3.28907    1.99824
  129     -3.27914    1.99805
  130     -3.27546    1.99798
  131     -3.27268    1.99792
  132     -3.24410    1.99724
  133     -3.23748    1.99705
  134     -3.20515    1.99592
  135     -3.20330    1.99585
  136     -3.19082    1.99530
  137     -3.17996    1.99476
  138     -3.17785    1.99465
  139     -3.17372    1.99442
  140     -3.12565    1.99099
  141     -3.12530    1.99096
  142     -3.00850    1.97122
  143     -3.00465    1.97011
  144     -2.99425    1.96689
  145     -2.99022    1.96555
  146     -2.98869    1.96503
  147     -2.98627    1.96419
  148     -2.77179    1.73054
  149     -2.76097    1.70429
  150     -2.75431    1.68711
  151     -2.74758    1.66895
  152     -2.74526    1.66248
  153     -2.73903    1.64464
  154     -2.61949    1.16679
  155     -0.72724    0.00000
  156     -0.23049    0.00000
  157     -0.22826    0.00000
  158     -0.21787    0.00000
  159     -0.20993    0.00000
  160     -0.20166    0.00000
  161     -0.06165    0.00000
  162      0.95582    0.00000
  163      0.96696    0.00000
  164      1.69403    0.00000
  165      1.70574    0.00000
  166      1.93398    0.00000
  167      1.94748    0.00000
  168      1.95701    0.00000
  169      1.95964    0.00000
  170      2.96797    0.00000
  171      3.34317    0.00000
  172      3.34792    0.00000
  173      3.35912    0.00000
  174      3.36714    0.00000
  175      3.36968    0.00000
  176      3.38125    0.00000
  177      3.58413    0.00000
  178      3.66500    0.00000
  179      4.01957    0.00000
  180      4.02354    0.00000
  181      4.03389    0.00000
  182      4.03953    0.00000
  183      4.04678    0.00000
  184      4.09733    0.00000
  185      4.24662    0.00000
  186      4.74020    0.00000
  187      5.06248    0.00000
  188      5.11000    0.00000

Fermi level: -2.58581

Gap: 1.892 eV
Transition (v -> c):
  (s=0, k=0, n=154, [0.00, 0.00, 0.00]) -> (s=0, k=0, n=155, [0.00, 0.00, 0.00])

Forces in eV/Ang:
  0 Au    0.01055   -0.00236    0.34577
  1 Au   -0.03532   -0.06334    0.33600
  2 Au    0.01993   -0.03253    0.33421
  3 Au   -0.10238    0.00139    0.36969
  4 Au    0.01830   -0.15349    0.77698
  5 Au    0.10610   -0.03320    0.38487
  6 Au   -0.07102    0.08978    0.40187
  7 Au    0.06516    0.15952    0.43213
  8 Au    0.01624   -0.00635    0.30649
  9 Au   -0.01176    0.01595    0.00870
 10 Au   -0.00742   -0.00290    0.01037
 11 Au    0.01789   -0.02157   -0.00978
 12 Au    0.01657    0.00656    0.03616
 13 Au   -0.04492    0.04279    0.00043
 14 Au    0.02708    0.01309    0.00365
 15 Au   -0.00631   -0.01779    0.03982
 16 Au    0.00642   -0.02120   -0.00102
 17 Au   -0.00150    0.00579    0.04076
 18 Au    0.02741    0.00456   -0.34421
 19 Au   -0.02736    0.00007   -0.37369
 20 Au    0.00124    0.08419   -0.40152
 21 Au   -0.00524   -0.00435   -0.37586
 22 Au   -0.00876   -0.01037   -0.35257
 23 Au    0.01259   -0.01882   -0.34921
 24 Au    0.05132   -0.04233   -0.36441
 25 Au   -0.00675    0.03190   -0.34836
 26 Au   -0.05429   -0.04809   -0.36014
 27 O     0.02850   -0.01162    0.75641
 28 C     0.00952   -0.00171   -1.32661

System changes: positions 

Initializing position-dependent things.

Density initialized from wave functions
                                              
                                              
                                              
                                              
                                              
                  Au     Au     Au            
            Au      Au     Au                 
                   Au     Au     Au           
       Au     Au     AAu    Au                
                                              
        Au     Au     AAu    Au     Au        
                                              
                 Au     Au     Au             
           Au      Au     Au                  
                        O                     
                                              
                        C                     
                                              
                                              
                                              
                                              
                                              
                                              

Positions:
   0 Au     1.475719    0.850580   12.050655    ( 0.0000,  0.0000,  0.0000)
   1 Au     4.418078    0.841481   12.049521    ( 0.0000,  0.0000,  0.0000)
   2 Au     7.374958    0.845915   12.049621    ( 0.0000,  0.0000,  0.0000)
   3 Au     2.932874    3.405366   12.054007    ( 0.0000,  0.0000,  0.0000)
   4 Au     5.897436    3.380246   12.117353    ( 0.0000,  0.0000,  0.0000)
   5 Au     8.861691    3.399592   12.055897    ( 0.0000,  0.0000,  0.0000)
   6 Au     4.411217    5.974919   12.060238    ( 0.0000,  0.0000,  0.0000)
   7 Au     7.381788    5.982659   12.063071    ( 0.0000,  0.0000,  0.0000)
   8 Au    10.322627    5.957604   12.044653    ( 0.0000,  0.0000,  0.0000)
   9 Au    -0.001886    1.705354   14.408875    ( 0.0000,  0.0000,  0.0000)
  10 Au     2.947338    1.701962   14.409129    ( 0.0000,  0.0000,  0.0000)
  11 Au     5.900289    1.700766   14.403395    ( 0.0000,  0.0000,  0.0000)
  12 Au     1.477050    4.256215   14.412129    ( 0.0000,  0.0000,  0.0000)
  13 Au     4.417225    4.262167   14.406188    ( 0.0000,  0.0000,  0.0000)
  14 Au     7.374835    4.257245   14.406825    ( 0.0000,  0.0000,  0.0000)
  15 Au     2.948346    6.806613   14.412564    ( 0.0000,  0.0000,  0.0000)
  16 Au     5.898573    6.806121   14.407225    ( 0.0000,  0.0000,  0.0000)
  17 Au     8.844854    6.810522   14.412517    ( 0.0000,  0.0000,  0.0000)
  18 Au     0.003728    0.000570   16.760793    ( 0.0000,  0.0000,  0.0000)
  19 Au     2.944601   -0.000020   16.761389    ( 0.0000,  0.0000,  0.0000)
  20 Au     5.897596    0.013008   16.758230    ( 0.0000,  0.0000,  0.0000)
  21 Au     1.473521    2.552823   16.760969    ( 0.0000,  0.0000,  0.0000)
  22 Au     4.421421    2.552119   16.764432    ( 0.0000,  0.0000,  0.0000)
  23 Au     7.373865    2.550704   16.764987    ( 0.0000,  0.0000,  0.0000)
  24 Au     2.957061    5.100761   16.762758    ( 0.0000,  0.0000,  0.0000)
  25 Au     5.896294    5.112279   16.765223    ( 0.0000,  0.0000,  0.0000)
  26 Au     8.838105    5.100517   16.763226    ( 0.0000,  0.0000,  0.0000)
  27 O      6.001949    4.000484    9.536820    ( 0.0000,  0.0000,  0.0000)
  28 C      6.001290    3.999579    8.385831    ( 0.0000,  0.0000,  0.0000)

Unit cell:
           periodic     x           y           z      points  spacing
  1. axis:    yes    8.845906    0.000000    0.000000    40     0.1915
  2. axis:    yes    4.422953    7.660779    0.000000    40     0.1915
  3. axis:    yes    0.000000    0.000000   28.815101   144     0.2001

  Lengths:   8.845906   8.845906  28.815101
  Angles:   90.000000  90.000000  60.000000

Effective grid spacing dv^(1/3) = 0.2039

     iter     time        total  log10-change:
                         energy  eigst   dens
iter:   1 17:56:44  -102.223387  -0.84
iter:   2 17:56:46  -100.943845  -2.08  -1.73
iter:   3 17:56:49  -100.129997  -1.68  -1.89
iter:   4 17:56:51  -100.108883  -2.25  -2.49
iter:   5 17:56:54  -100.101624c -3.11  -2.69
iter:   6 17:56:56  -100.091270c -3.06  -2.73
iter:   7 17:56:58  -100.086957c -3.32  -2.87
iter:   8 17:57:01  -100.086837c -4.11  -3.00
iter:   9 17:57:03  -100.083979c -4.03  -3.02
iter:  10 17:57:06  -100.083467c -4.63  -3.27
iter:  11 17:57:08  -100.081727c -4.61  -3.41
iter:  12 17:57:10  -100.081668c -4.89  -3.67
iter:  13 17:57:13  -100.082296c -5.20  -3.70
iter:  14 17:57:15  -100.082304c -5.80  -3.89
iter:  15 17:57:18  -100.082359c -5.70  -3.97
iter:  16 17:57:20  -100.082548c -6.15  -4.05c
iter:  17 17:57:22  -100.082403c -6.24  -4.12c
iter:  18 17:57:25  -100.082454c -6.58  -4.25c
iter:  19 17:57:27  -100.082494c -6.75  -4.52c
iter:  20 17:57:30  -100.082425c -6.65  -4.62c
iter:  21 17:57:32  -100.082480c -7.34  -4.78c
iter:  22 17:57:35  -100.082492c -7.90c -4.96c

Converged after 22 iterations.

Dipole moment: (-4.496882, -2.462426, -0.094358) |e|*Ang

Energy contributions relative to reference atoms: (reference = -13951221.800367)

Kinetic:       -293.801124
Potential:     +228.492366
External:        +0.000000
XC:             -40.068233
Entropy (-ST):   -0.798939
Local:           +5.693969
--------------------------
Free energy:   -100.481961
Extrapolated:  -100.082492

 Band  Eigenvalues  Occupancy
    0    -26.00840    2.00000
    1    -11.54262    2.00000
    2     -9.75374    2.00000
    3     -8.77016    2.00000
    4     -8.74592    2.00000
    5     -8.03396    2.00000
    6     -7.74609    2.00000
    7     -7.72338    2.00000
    8     -7.71526    2.00000
    9     -7.70780    2.00000
   10     -7.69803    2.00000
   11     -7.68936    2.00000
   12     -7.68435    2.00000
   13     -7.07214    2.00000
   14     -7.06375    2.00000
   15     -7.05205    2.00000
   16     -7.04466    2.00000
   17     -7.03814    2.00000
   18     -7.03598    2.00000
   19     -6.88603    2.00000
   20     -6.86791    2.00000
   21     -6.86269    2.00000
   22     -6.85956    2.00000
   23     -6.85289    2.00000
   24     -6.84703    2.00000
   25     -6.57866    2.00000
   26     -6.56006    2.00000
   27     -6.54842    2.00000
   28     -6.53709    2.00000
   29     -6.52948    2.00000
   30     -6.52645    2.00000
   31     -6.37108    2.00000
   32     -6.36604    2.00000
   33     -6.35789    2.00000
   34     -6.34895    2.00000
   35     -6.34357    2.00000
   36     -6.33967    2.00000
   37     -6.11398    2.00000
   38     -6.01860    2.00000
   39     -6.01241    2.00000
   40     -6.00882    2.00000
   41     -5.99507    2.00000
   42     -5.66739    2.00000
   43     -5.66059    2.00000
   44     -5.64465    2.00000
   45     -5.63697    2.00000
   46     -5.63256    2.00000
   47     -5.62245    2.00000
   48     -5.50057    2.00000
   49     -5.49999    2.00000
   50     -5.45046    2.00000
   51     -5.40511    2.00000
   52     -5.39188    2.00000
   53     -5.38555    2.00000
   54     -5.38414    2.00000
   55     -5.38084    2.00000
   56     -5.37445    2.00000
   57     -5.20991    2.00000
   58     -5.18851    2.00000
   59     -5.16186    2.00000
   60     -5.14708    2.00000
   61     -5.12948    2.00000
   62     -5.12101    2.00000
   63     -5.11923    2.00000
   64     -5.11527    2.00000
   65     -5.11088    2.00000
   66     -5.10723    2.00000
   67     -5.07486    2.00000
   68     -5.00155    2.00000
   69     -4.99379    2.00000
   70     -4.99059    2.00000
   71     -4.98542    2.00000
   72     -4.98492    2.00000
   73     -4.97557    2.00000
   74     -4.82278    2.00000
   75     -4.82182    2.00000
   76     -4.80887    2.00000
   77     -4.80295    2.00000
   78     -4.78499    2.00000
   79     -4.77694    2.00000
   80     -4.76280    2.00000
   81     -4.75886    2.00000
   82     -4.75226    2.00000
   83     -4.74666    2.00000
   84     -4.33443    2.00000
   85     -4.32444    2.00000
   86     -4.30140    2.00000
   87     -4.29215    2.00000
   88     -4.28225    2.00000
   89     -4.26597    2.00000
   90     -4.14634    2.00000
   91     -4.14162    2.00000
   92     -4.13117    2.00000
   93     -4.11474    2.00000
   94     -4.10712    2.00000
   95     -4.10391    2.00000
   96     -4.08335    2.00000
   97     -4.07856    2.00000
   98     -4.07801    2.00000
   99     -4.07254    2.00000
  100     -4.06940    2.00000
  101     -4.05906    2.00000
  102     -3.97008    2.00000
  103     -3.94603    2.00000
  104     -3.93769    2.00000
  105     -3.93335    2.00000
  106     -3.93051    2.00000
  107     -3.90995    2.00000
  108     -3.65133    1.99996
  109     -3.64246    1.99996
  110     -3.63837    1.99996
  111     -3.63275    1.99995
  112     -3.63105    1.99995
  113     -3.62733    1.99995
  114     -3.61561    1.99995
  115     -3.61016    1.99994
  116     -3.60773    1.99994
  117     -3.60197    1.99994
  118     -3.59767    1.99993
  119     -3.59415    1.99993
  120     -3.58970    1.99993
  121     -3.58797    1.99993
  122     -3.36953    1.99936
  123     -3.36549    1.99934
  124     -3.35988    1.99930
  125     -3.35715    1.99928
  126     -3.34126    1.99915
  127     -3.33660    1.99911
  128     -3.31370    1.99888
  129     -3.29466    1.99865
  130     -3.28482    1.99851
  131     -3.27938    1.99843
  132     -3.23297    1.99750
  133     -3.22793    1.99737
  134     -3.22538    1.99731
  135     -3.22254    1.99723
  136     -3.21856    1.99712
  137     -3.19763    1.99644
  138     -3.19093    1.99620
  139     -3.18386    1.99592
  140     -3.10702    1.99123
  141     -3.10646    1.99118
  142     -2.98691    1.97113
  143     -2.98344    1.97013
  144     -2.97685    1.96812
  145     -2.96939    1.96570
  146     -2.96508    1.96421
  147     -2.96114    1.96280
  148     -2.75419    1.73895
  149     -2.74004    1.70513
  150     -2.73107    1.68185
  151     -2.72618    1.66856
  152     -2.72469    1.66442
  153     -2.71830    1.64619
  154     -2.59398    1.14610
  155     -0.69743    0.00000
  156     -0.13741    0.00000
  157     -0.13158    0.00000
  158     -0.12283    0.00000
  159     -0.10417    0.00000
  160     -0.10114    0.00000
  161      0.03182    0.00000
  162      0.80809    0.00000
  163      0.82023    0.00000
  164      1.67312    0.00000
  165      1.69138    0.00000
  166      1.90308    0.00000
  167      1.91708    0.00000
  168      1.92509    0.00000
  169      1.93312    0.00000
  170      2.98975    0.00000
  171      3.37265    0.00000
  172      3.38182    0.00000
  173      3.38825    0.00000
  174      3.40931    0.00000
  175      3.41525    0.00000
  176      3.42538    0.00000
  177      3.59528    0.00000
  178      3.69536    0.00000
  179      3.99799    0.00000
  180      4.01156    0.00000
  181      4.02430    0.00000
  182      4.03683    0.00000
  183      4.05271    0.00000
  184      4.10063    0.00000
  185      4.25926    0.00000
  186      4.51450    0.00000
  187      5.09275    0.00000
  188      5.12581    0.00000

Fermi level: -2.56455

Gap: 1.897 eV
Transition (v -> c):
  (s=0, k=0, n=154, [0.00, 0.00, 0.00]) -> (s=0, k=0, n=155, [0.00, 0.00, 0.00])

Forces in eV/Ang:
  0 Au    0.04283    0.02470    0.17705
  1 Au   -0.02636   -0.04284    0.16954
  2 Au   -0.02688    0.00131    0.15356
  3 Au   -0.04482   -0.00352    0.19568
  4 Au    0.04347   -0.04427    0.30965
  5 Au    0.04390   -0.01997    0.19793
  6 Au   -0.04490   -0.00529    0.20436
  7 Au    0.01702    0.05914    0.21469
  8 Au    0.01953    0.00274    0.15530
  9 Au   -0.00417   -0.01010   -0.00075
 10 Au    0.00527    0.00024   -0.00275
 11 Au   -0.00381   -0.07454    0.09343
 12 Au   -0.00047    0.02818    0.03798
 13 Au   -0.05645    0.02702    0.04524
 14 Au    0.04728    0.03375    0.04478
 15 Au   -0.02144    0.00036    0.04235
 16 Au   -0.00981   -0.00334    0.00301
 17 Au    0.02603   -0.00136    0.04906
 18 Au    0.03055    0.00732   -0.16610
 19 Au    0.00175    0.00194   -0.18777
 20 Au   -0.01114    0.03631   -0.22812
 21 Au    0.00744    0.01640   -0.18893
 22 Au    0.00309   -0.00434   -0.16480
 23 Au   -0.01183    0.00923   -0.17369
 24 Au    0.00427   -0.02949   -0.18058
 25 Au    0.00643   -0.00652   -0.17511
 26 Au   -0.03063   -0.03612   -0.16703
 27 O     0.02213   -0.02440   -1.78958
 28 C     0.01023   -0.00128    1.35116

System changes: positions 

Initializing position-dependent things.

Density initialized from wave functions
                                              
                                              
                                              
                                              
                                              
                  Au     Au     Au            
            Au      Au     Au                 
                   Au     Au     Au           
       Au     Au     AAu    Au                
                                              
        Au     Au     AAu    Au     Au        
                        Au                    
                 Au            Au             
           Au      Au     Au                  
                        O                     
                                              
                        C                     
                                              
                                              
                                              
                                              
                                              
                                              

Positions:
   0 Au     1.477283    0.850807   12.078321    ( 0.0000,  0.0000,  0.0000)
   1 Au     4.415243    0.836010   12.076486    ( 0.0000,  0.0000,  0.0000)
   2 Au     7.375976    0.843449   12.076319    ( 0.0000,  0.0000,  0.0000)
   3 Au     2.924534    3.405561   12.083608    ( 0.0000,  0.0000,  0.0000)
   4 Au     5.898325    3.367709   12.179404    ( 0.0000,  0.0000,  0.0000)
   5 Au     8.870022    3.396704   12.086431    ( 0.0000,  0.0000,  0.0000)
   6 Au     4.404700    5.982696   12.093071    ( 0.0000,  0.0000,  0.0000)
   7 Au     7.386942    5.995331   12.097351    ( 0.0000,  0.0000,  0.0000)
   8 Au    10.324188    5.957316   12.069036    ( 0.0000,  0.0000,  0.0000)
   9 Au    -0.002872    1.706546   14.409477    ( 0.0000,  0.0000,  0.0000)
  10 Au     2.946838    1.701761   14.409808    ( 0.0000,  0.0000,  0.0000)
  11 Au     5.901640    1.698429   14.403398    ( 0.0000,  0.0000,  0.0000)
  12 Au     1.478338    4.256908   14.415070    ( 0.0000,  0.0000,  0.0000)
  13 Au     4.413352    4.265652   14.406487    ( 0.0000,  0.0000,  0.0000)
  14 Au     7.377345    4.258539   14.407417    ( 0.0000,  0.0000,  0.0000)
  15 Au     2.947758    6.805217   14.415798    ( 0.0000,  0.0000,  0.0000)
  16 Au     5.898984    6.804407   14.407131    ( 0.0000,  0.0000,  0.0000)
  17 Au     8.844902    6.810944   14.415870    ( 0.0000,  0.0000,  0.0000)
  18 Au     0.006110    0.000984   16.731493    ( 0.0000,  0.0000,  0.0000)
  19 Au     2.942769    0.000005   16.732096    ( 0.0000,  0.0000,  0.0000)
  20 Au     5.897508    0.019901   16.726615    ( 0.0000,  0.0000,  0.0000)
  21 Au     1.473312    2.552830   16.731450    ( 0.0000,  0.0000,  0.0000)
  22 Au     4.420777    2.551342   16.737067    ( 0.0000,  0.0000,  0.0000)
  23 Au     7.374671    2.549560   16.737690    ( 0.0000,  0.0000,  0.0000)
  24 Au     2.961122    5.097109   16.734264    ( 0.0000,  0.0000,  0.0000)
  25 Au     5.895981    5.114519   16.738012    ( 0.0000,  0.0000,  0.0000)
  26 Au     8.833802    5.096634   16.735241    ( 0.0000,  0.0000,  0.0000)
  27 O      6.003375    4.000073    9.513559    ( 0.0000,  0.0000,  0.0000)
  28 C      6.002112    3.999442    8.363302    ( 0.0000,  0.0000,  0.0000)

Unit cell:
           periodic     x           y           z      points  spacing
  1. axis:    yes    8.845906    0.000000    0.000000    40     0.1915
  2. axis:    yes    4.422953    7.660779    0.000000    40     0.1915
  3. axis:    yes    0.000000    0.000000   28.815101   144     0.2001

  Lengths:   8.845906   8.845906  28.815101
  Angles:   90.000000  90.000000  60.000000

Effective grid spacing dv^(1/3) = 0.2039

     iter     time        total  log10-change:
                         energy  eigst   dens
iter:   1 17:57:43  -101.047818  -1.13
iter:   2 17:57:45  -100.568085  -2.41  -1.91
iter:   3 17:57:48  -100.165818  -1.82  -2.05
iter:   4 17:57:50  -100.163955  -2.97  -2.80
iter:   5 17:57:52  -100.160766c -3.68  -2.84
iter:   6 17:57:55  -100.157683c -3.63  -2.91
iter:   7 17:57:57  -100.158503c -4.37  -3.23
iter:   8 17:58:00  -100.158773c -4.80  -3.38
iter:   9 17:58:02  -100.157553c -4.76  -3.45
iter:  10 17:58:05  -100.157644c -5.35  -3.65
iter:  11 17:58:07  -100.157932c -5.14  -3.77
iter:  12 17:58:10  -100.157815c -5.68  -3.99
iter:  13 17:58:12  -100.158070c -5.99  -4.01c
iter:  14 17:58:15  -100.158117c -6.49  -4.18c
iter:  15 17:58:17  -100.158149c -6.43  -4.30c
iter:  16 17:58:20  -100.158122c -6.60  -4.54c
iter:  17 17:58:22  -100.158101c -7.38  -4.63c
iter:  18 17:58:25  -100.158057c -7.43c -4.67c

Converged after 18 iterations.

Dipole moment: (-5.328330, -2.886292, -0.076243) |e|*Ang

Energy contributions relative to reference atoms: (reference = -13951221.800367)

Kinetic:       -275.809724
Potential:     +212.881326
External:        +0.000000
XC:             -42.589432
Entropy (-ST):   -0.793599
Local:           +5.756572
--------------------------
Free energy:   -100.554857
Extrapolated:  -100.158057

 Band  Eigenvalues  Occupancy
    0    -25.94074    2.00000
    1    -11.39744    2.00000
    2     -9.86054    2.00000
    3     -8.69478    2.00000
    4     -8.67212    2.00000
    5     -8.08177    2.00000
    6     -7.84745    2.00000
    7     -7.82834    2.00000
    8     -7.81636    2.00000
    9     -7.81255    2.00000
   10     -7.79336    2.00000
   11     -7.79007    2.00000
   12     -7.77922    2.00000
   13     -7.16931    2.00000
   14     -7.15616    2.00000
   15     -7.14145    2.00000
   16     -7.13340    2.00000
   17     -7.12665    2.00000
   18     -7.12111    2.00000
   19     -6.98467    2.00000
   20     -6.95966    2.00000
   21     -6.95558    2.00000
   22     -6.94870    2.00000
   23     -6.93860    2.00000
   24     -6.93009    2.00000
   25     -6.69674    2.00000
   26     -6.66964    2.00000
   27     -6.65914    2.00000
   28     -6.64182    2.00000
   29     -6.63436    2.00000
   30     -6.62643    2.00000
   31     -6.42669    2.00000
   32     -6.41810    2.00000
   33     -6.41291    2.00000
   34     -6.40249    2.00000
   35     -6.38714    2.00000
   36     -6.38365    2.00000
   37     -6.13097    2.00000
   38     -6.11267    2.00000
   39     -6.10153    2.00000
   40     -6.09912    2.00000
   41     -6.01503    2.00000
   42     -5.74883    2.00000
   43     -5.74058    2.00000
   44     -5.72422    2.00000
   45     -5.71082    2.00000
   46     -5.70505    2.00000
   47     -5.69423    2.00000
   48     -5.57732    2.00000
   49     -5.57610    2.00000
   50     -5.44226    2.00000
   51     -5.43309    2.00000
   52     -5.41741    2.00000
   53     -5.40748    2.00000
   54     -5.40207    2.00000
   55     -5.39838    2.00000
   56     -5.38515    2.00000
   57     -5.32008    2.00000
   58     -5.29130    2.00000
   59     -5.23984    2.00000
   60     -5.23678    2.00000
   61     -5.22645    2.00000
   62     -5.21936    2.00000
   63     -5.20474    2.00000
   64     -5.20106    2.00000
   65     -5.19809    2.00000
   66     -5.19670    2.00000
   67     -5.10440    2.00000
   68     -5.04667    2.00000
   69     -5.03548    2.00000
   70     -5.03315    2.00000
   71     -5.02355    2.00000
   72     -5.02178    2.00000
   73     -5.01494    2.00000
   74     -4.86131    2.00000
   75     -4.85926    2.00000
   76     -4.85060    2.00000
   77     -4.84162    2.00000
   78     -4.81695    2.00000
   79     -4.80627    2.00000
   80     -4.80013    2.00000
   81     -4.79359    2.00000
   82     -4.78894    2.00000
   83     -4.77895    2.00000
   84     -4.37295    2.00000
   85     -4.35830    2.00000
   86     -4.33659    2.00000
   87     -4.32298    2.00000
   88     -4.30747    2.00000
   89     -4.29329    2.00000
   90     -4.21031    2.00000
   91     -4.20876    2.00000
   92     -4.19873    2.00000
   93     -4.17921    2.00000
   94     -4.16824    2.00000
   95     -4.16465    2.00000
   96     -4.10758    2.00000
   97     -4.10646    2.00000
   98     -4.09074    2.00000
   99     -4.07847    2.00000
  100     -4.07503    2.00000
  101     -4.05846    2.00000
  102     -4.00931    2.00000
  103     -3.98532    2.00000
  104     -3.97299    2.00000
  105     -3.96660    2.00000
  106     -3.96167    2.00000
  107     -3.93655    2.00000
  108     -3.68275    1.99997
  109     -3.67630    1.99997
  110     -3.66689    1.99997
  111     -3.66605    1.99997
  112     -3.65220    1.99996
  113     -3.64532    1.99996
  114     -3.63830    1.99996
  115     -3.63592    1.99996
  116     -3.63064    1.99996
  117     -3.62820    1.99996
  118     -3.62710    1.99995
  119     -3.62053    1.99995
  120     -3.61433    1.99995
  121     -3.61115    1.99995
  122     -3.41430    1.99962
  123     -3.39033    1.99952
  124     -3.36833    1.99940
  125     -3.36679    1.99939
  126     -3.35170    1.99929
  127     -3.34868    1.99927
  128     -3.34542    1.99924
  129     -3.31870    1.99901
  130     -3.30635    1.99888
  131     -3.29712    1.99877
  132     -3.26091    1.99824
  133     -3.25734    1.99817
  134     -3.25380    1.99811
  135     -3.23428    1.99770
  136     -3.22520    1.99748
  137     -3.21723    1.99728
  138     -3.20870    1.99703
  139     -3.20009    1.99677
  140     -3.10099    1.99131
  141     -3.10034    1.99126
  142     -2.97780    1.97054
  143     -2.97580    1.96995
  144     -2.97010    1.96822
  145     -2.95930    1.96466
  146     -2.95448    1.96294
  147     -2.94876    1.96080
  148     -2.74985    1.74505
  149     -2.73476    1.70955
  150     -2.72693    1.68957
  151     -2.71969    1.67011
  152     -2.71496    1.65686
  153     -2.71009    1.64281
  154     -2.58442    1.13377
  155     -0.68213    0.00000
  156     -0.08004    0.00000
  157     -0.07454    0.00000
  158     -0.05156    0.00000
  159     -0.03815    0.00000
  160     -0.02714    0.00000
  161      0.09466    0.00000
  162      0.87426    0.00000
  163      0.88584    0.00000
  164      1.64756    0.00000
  165      1.67203    0.00000
  166      1.86824    0.00000
  167      1.88432    0.00000
  168      1.89015    0.00000
  169      1.90215    0.00000
  170      3.01071    0.00000
  171      3.38013    0.00000
  172      3.40309    0.00000
  173      3.41145    0.00000
  174      3.43024    0.00000
  175      3.43935    0.00000
  176      3.45044    0.00000
  177      3.60803    0.00000
  178      3.71337    0.00000
  179      3.97049    0.00000
  180      3.99274    0.00000
  181      4.00663    0.00000
  182      4.02427    0.00000
  183      4.04778    0.00000
  184      4.09343    0.00000
  185      4.26264    0.00000
  186      4.53590    0.00000
  187      5.10906    0.00000
  188      5.12894    0.00000

Fermi level: -2.55751

Gap: 1.902 eV
Transition (v -> c):
  (s=0, k=0, n=154, [0.00, 0.00, 0.00]) -> (s=0, k=0, n=155, [0.00, 0.00, 0.00])

Forces in eV/Ang:
  0 Au    0.03636    0.02875    0.04866
  1 Au   -0.01380    0.02143    0.01970
  2 Au   -0.02955    0.00458    0.02462
  3 Au    0.03866   -0.02855    0.03587
  4 Au    0.00918    0.01470   -0.09042
  5 Au   -0.00147    0.00428    0.04148
  6 Au   -0.01701   -0.02247    0.03599
  7 Au   -0.01058   -0.03097    0.03251
  8 Au    0.01126    0.00534    0.02753
  9 Au    0.00040   -0.02905   -0.00882
 10 Au    0.01576    0.00262   -0.01241
 11 Au   -0.02233   -0.13012    0.18996
 12 Au   -0.01285    0.04491    0.03724
 13 Au   -0.06490    0.01288    0.08387
 14 Au    0.06702    0.05263    0.08048
 15 Au   -0.03445    0.01423    0.04174
 16 Au   -0.02207    0.00976    0.00802
 17 Au    0.04873   -0.00664    0.05323
 18 Au    0.04557    0.01290   -0.02226
 19 Au    0.01891    0.00534   -0.01719
 20 Au   -0.01295   -0.00134   -0.05493
 21 Au    0.01614    0.02619   -0.01749
 22 Au    0.00598   -0.00191   -0.06972
 23 Au   -0.02777    0.02957   -0.01590
 24 Au   -0.03164   -0.01121   -0.00927
 25 Au    0.01348   -0.03634   -0.02224
 26 Au   -0.02118   -0.03581   -0.05101
 27 O     0.01959   -0.01805   -1.62185
 28 C     0.02066    0.00308    1.31053

System changes: positions 

Initializing position-dependent things.

Density initialized from wave functions
                                              
                                              
                                              
                                              
                                              
                  Au     Au     Au            
            Au      Au     Au                 
                   Au     Au     Au           
       Au     Au     AAu    Au                
                                              
        Au     Au     AAu    Au     Au        
                        Au                    
                 Au            Au             
           Au      Au     Au                  
                        O                     
                                              
                        C                     
                                              
                                              
                                              
                                              
                                              
                                              

Positions:
   0 Au     1.478059    0.851263   12.083690    ( 0.0000,  0.0000,  0.0000)
   1 Au     4.414578    0.835503   12.081258    ( 0.0000,  0.0000,  0.0000)
   2 Au     7.375736    0.843074   12.081180    ( 0.0000,  0.0000,  0.0000)
   3 Au     2.923814    3.405126   12.089045    ( 0.0000,  0.0000,  0.0000)
   4 Au     5.898474    3.365794   12.188369    ( 0.0000,  0.0000,  0.0000)
   5 Au     8.871369    3.396301   12.092123    ( 0.0000,  0.0000,  0.0000)
   6 Au     4.403342    5.983782   12.099122    ( 0.0000,  0.0000,  0.0000)
   7 Au     7.387644    5.996935   12.103529    ( 0.0000,  0.0000,  0.0000)
   8 Au    10.324614    5.957355   12.073518    ( 0.0000,  0.0000,  0.0000)
   9 Au    -0.003036    1.706305   14.409437    ( 0.0000,  0.0000,  0.0000)
  10 Au     2.946998    1.701768   14.409727    ( 0.0000,  0.0000,  0.0000)
  11 Au     5.901524    1.696025   14.406330    ( 0.0000,  0.0000,  0.0000)
  12 Au     1.478360    4.257707   14.416116    ( 0.0000,  0.0000,  0.0000)
  13 Au     4.411723    4.266427   14.407822    ( 0.0000,  0.0000,  0.0000)
  14 Au     7.378787    4.259561   14.408749    ( 0.0000,  0.0000,  0.0000)
  15 Au     2.947132    6.805200   14.416958    ( 0.0000,  0.0000,  0.0000)
  16 Au     5.898716    6.804264   14.407238    ( 0.0000,  0.0000,  0.0000)
  17 Au     8.845657    6.810917   14.417226    ( 0.0000,  0.0000,  0.0000)
  18 Au     0.007213    0.001251   16.726181    ( 0.0000,  0.0000,  0.0000)
  19 Au     2.942764    0.000091   16.727008    ( 0.0000,  0.0000,  0.0000)
  20 Au     5.897302    0.021023   16.720590    ( 0.0000,  0.0000,  0.0000)
  21 Au     1.473530    2.553237   16.726316    ( 0.0000,  0.0000,  0.0000)
  22 Au     4.420759    2.551186   16.731386    ( 0.0000,  0.0000,  0.0000)
  23 Au     7.374375    2.549834   16.732946    ( 0.0000,  0.0000,  0.0000)
  24 Au     2.961313    5.096341   16.729434    ( 0.0000,  0.0000,  0.0000)
  25 Au     5.896138    5.114321   16.733184    ( 0.0000,  0.0000,  0.0000)
  26 Au     8.832761    5.095439   16.729765    ( 0.0000,  0.0000,  0.0000)
  27 O      6.003926    3.999698    9.503069    ( 0.0000,  0.0000,  0.0000)
  28 C      6.002579    3.999516    8.361422    ( 0.0000,  0.0000,  0.0000)

Unit cell:
           periodic     x           y           z      points  spacing
  1. axis:    yes    8.845906    0.000000    0.000000    40     0.1915
  2. axis:    yes    4.422953    7.660779    0.000000    40     0.1915
  3. axis:    yes    0.000000    0.000000   28.815101   144     0.2001

  Lengths:   8.845906   8.845906  28.815101
  Angles:   90.000000  90.000000  60.000000

Effective grid spacing dv^(1/3) = 0.2039

     iter     time        total  log10-change:
                         energy  eigst   dens
iter:   1 17:58:33  -100.188819  -2.59
iter:   2 17:58:35  -100.181138  -3.79  -2.74
iter:   3 17:58:38  -100.175748c -3.21  -2.84
iter:   4 17:58:40  -100.172870c -4.45  -3.31
iter:   5 17:58:42  -100.170995c -4.63  -3.43
iter:   6 17:58:45  -100.171402c -4.87  -3.58
iter:   7 17:58:47  -100.171265c -5.45  -3.77
iter:   8 17:58:50  -100.171140c -5.59  -3.93
iter:   9 17:58:52  -100.171040c -5.88  -4.00c
iter:  10 17:58:55  -100.171161c -6.09  -4.20c
iter:  11 17:58:57  -100.171190c -6.72  -4.36c
iter:  12 17:58:59  -100.171200c -6.67  -4.44c
iter:  13 17:59:02  -100.171206c -7.36  -4.68c
iter:  14 17:59:04  -100.171167c -7.31  -4.76c
iter:  15 17:59:07  -100.171151c -7.80c -4.93c

Converged after 15 iterations.

Dipole moment: (-5.477291, -2.955749, -0.064500) |e|*Ang

Energy contributions relative to reference atoms: (reference = -13951221.800367)

Kinetic:       -271.504913
Potential:     +209.237752
External:        +0.000000
XC:             -43.278251
Entropy (-ST):   -0.793550
Local:           +5.771036
--------------------------
Free energy:   -100.567927
Extrapolated:  -100.171151

 Band  Eigenvalues  Occupancy
    0    -26.04402    2.00000
    1    -11.36542    2.00000
    2     -9.88422    2.00000
    3     -8.74853    2.00000
    4     -8.72628    2.00000
    5     -8.09481    2.00000
    6     -7.87059    2.00000
    7     -7.85243    2.00000
    8     -7.84040    2.00000
    9     -7.83463    2.00000
   10     -7.81432    2.00000
   11     -7.81283    2.00000
   12     -7.80037    2.00000
   13     -7.19030    2.00000
   14     -7.17674    2.00000
   15     -7.16234    2.00000
   16     -7.15349    2.00000
   17     -7.14852    2.00000
   18     -7.14190    2.00000
   19     -7.00486    2.00000
   20     -6.98056    2.00000
   21     -6.97718    2.00000
   22     -6.97002    2.00000
   23     -6.95935    2.00000
   24     -6.95002    2.00000
   25     -6.72174    2.00000
   26     -6.69361    2.00000
   27     -6.68234    2.00000
   28     -6.66595    2.00000
   29     -6.65836    2.00000
   30     -6.64924    2.00000
   31     -6.44174    2.00000
   32     -6.43216    2.00000
   33     -6.42692    2.00000
   34     -6.41695    2.00000
   35     -6.40013    2.00000
   36     -6.39629    2.00000
   37     -6.14510    2.00000
   38     -6.13412    2.00000
   39     -6.12280    2.00000
   40     -6.12041    2.00000
   41     -5.98720    2.00000
   42     -5.76785    2.00000
   43     -5.75969    2.00000
   44     -5.74365    2.00000
   45     -5.72974    2.00000
   46     -5.72270    2.00000
   47     -5.71165    2.00000
   48     -5.59591    2.00000
   49     -5.59461    2.00000
   50     -5.44630    2.00000
   51     -5.44117    2.00000
   52     -5.42655    2.00000
   53     -5.41575    2.00000
   54     -5.41025    2.00000
   55     -5.40567    2.00000
   56     -5.39213    2.00000
   57     -5.34336    2.00000
   58     -5.31468    2.00000
   59     -5.26269    2.00000
   60     -5.25791    2.00000
   61     -5.24824    2.00000
   62     -5.24242    2.00000
   63     -5.22366    2.00000
   64     -5.22070    2.00000
   65     -5.21750    2.00000
   66     -5.21465    2.00000
   67     -5.11414    2.00000
   68     -5.05947    2.00000
   69     -5.04789    2.00000
   70     -5.04498    2.00000
   71     -5.03493    2.00000
   72     -5.03256    2.00000
   73     -5.02580    2.00000
   74     -4.87319    2.00000
   75     -4.87063    2.00000
   76     -4.86146    2.00000
   77     -4.85231    2.00000
   78     -4.82649    2.00000
   79     -4.81677    2.00000
   80     -4.81169    2.00000
   81     -4.80557    2.00000
   82     -4.80125    2.00000
   83     -4.79099    2.00000
   84     -4.38425    2.00000
   85     -4.36897    2.00000
   86     -4.34730    2.00000
   87     -4.33340    2.00000
   88     -4.31718    2.00000
   89     -4.30293    2.00000
   90     -4.22684    2.00000
   91     -4.22540    2.00000
   92     -4.21549    2.00000
   93     -4.19563    2.00000
   94     -4.18464    2.00000
   95     -4.18080    2.00000
   96     -4.11674    2.00000
   97     -4.11592    2.00000
   98     -4.09664    2.00000
   99     -4.08414    2.00000
  100     -4.08043    2.00000
  101     -4.06296    2.00000
  102     -4.02041    2.00000
  103     -3.99717    2.00000
  104     -3.98393    2.00000
  105     -3.97742    2.00000
  106     -3.97193    2.00000
  107     -3.94678    2.00000
  108     -3.69454    1.99998
  109     -3.68872    1.99997
  110     -3.67756    1.99997
  111     -3.67514    1.99997
  112     -3.65918    1.99997
  113     -3.65406    1.99996
  114     -3.64862    1.99996
  115     -3.64730    1.99996
  116     -3.64113    1.99996
  117     -3.63872    1.99996
  118     -3.63799    1.99996
  119     -3.62710    1.99995
  120     -3.62064    1.99995
  121     -3.61673    1.99995
  122     -3.42536    1.99965
  123     -3.40043    1.99955
  124     -3.37335    1.99941
  125     -3.37281    1.99940
  126     -3.36246    1.99934
  127     -3.35539    1.99929
  128     -3.35141    1.99926
  129     -3.32727    1.99906
  130     -3.31559    1.99894
  131     -3.30575    1.99884
  132     -3.27129    1.99836
  133     -3.26802    1.99830
  134     -3.26486    1.99825
  135     -3.24128    1.99778
  136     -3.23205    1.99757
  137     -3.22395    1.99736
  138     -3.21605    1.99715
  139     -3.20797    1.99691
  140     -3.10434    1.99131
  141     -3.10358    1.99124
  142     -2.98054    1.97034
  143     -2.97864    1.96978
  144     -2.97317    1.96810
  145     -2.96174    1.96431
  146     -2.95686    1.96256
  147     -2.95105    1.96037
  148     -2.75324    1.74496
  149     -2.73840    1.71007
  150     -2.73024    1.68927
  151     -2.72286    1.66940
  152     -2.71822    1.65639
  153     -2.71333    1.64225
  154     -2.58825    1.13576
  155     -0.68345    0.00000
  156     -0.07342    0.00000
  157     -0.06816    0.00000
  158     -0.04271    0.00000
  159     -0.03091    0.00000
  160     -0.01854    0.00000
  161      0.10122    0.00000
  162      0.96971    0.00000
  163      0.98085    0.00000
  164      1.63884    0.00000
  165      1.66460    0.00000
  166      1.85778    0.00000
  167      1.87446    0.00000
  168      1.87982    0.00000
  169      1.89118    0.00000
  170      3.01743    0.00000
  171      3.38036    0.00000
  172      3.40329    0.00000
  173      3.41192    0.00000
  174      3.42955    0.00000
  175      3.43885    0.00000
  176      3.45091    0.00000
  177      3.61191    0.00000
  178      3.71287    0.00000
  179      3.96159    0.00000
  180      3.98535    0.00000
  181      3.99937    0.00000
  182      4.01700    0.00000
  183      4.04270    0.00000
  184      4.08652    0.00000
  185      4.26146    0.00000
  186      4.54661    0.00000
  187      5.10782    0.00000
  188      5.12029    0.00000

Fermi level: -2.56093

Gap: 1.905 eV
Transition (v -> c):
  (s=0, k=0, n=154, [0.00, 0.00, 0.00]) -> (s=0, k=0, n=155, [0.00, 0.00, 0.00])

Forces in eV/Ang:
  0 Au    0.03108    0.02621    0.01782
  1 Au   -0.00615    0.03139   -0.00609
  2 Au   -0.03226    0.00897   -0.00350
  3 Au    0.04998   -0.02349    0.00746
  4 Au   -0.00345    0.03251   -0.14187
  5 Au   -0.01321    0.00853    0.01294
  6 Au   -0.00590   -0.02831    0.00078
  7 Au   -0.01585   -0.04836    0.00185
  8 Au    0.00652    0.00442    0.00522
  9 Au    0.00010   -0.02769   -0.01068
 10 Au    0.01398    0.00157   -0.01392
 11 Au   -0.02409   -0.11899    0.17389
 12 Au   -0.01125    0.04234    0.02720
 13 Au   -0.05564    0.00714    0.07549
 14 Au    0.05598    0.04613    0.06755
 15 Au   -0.03079    0.01392    0.03533
 16 Au   -0.02111    0.00963    0.00660
 17 Au    0.04598   -0.00615    0.04181
 18 Au    0.05057    0.01449    0.00644
 19 Au    0.01907    0.00576    0.01248
 20 Au   -0.00836   -0.01314   -0.00622
 21 Au    0.01635    0.02407    0.01298
 22 Au    0.00454    0.00151   -0.03638
 23 Au   -0.02555    0.03157    0.01768
 24 Au   -0.03640   -0.00420    0.03131
 25 Au    0.01320   -0.03742    0.01023
 26 Au   -0.01340   -0.03091   -0.00713
 27 O     0.02480   -0.01532   -0.78788
 28 C     0.02013    0.00297    0.40023

System changes: positions 

Initializing position-dependent things.

Density initialized from wave functions
                                              
                                              
                                              
                                              
                                              
                  Au     Au     Au            
            Au      Au     Au                 
                   Au     Au     Au           
       Au     Au     AAu    Au                
                                              
        Au     Au     AAu    Au     Au        
                        Au                    
                 Au            Au             
           Au      Au     Au                  
                        O                     
                                              
                        C                     
                                              
                                              
                                              
                                              
[...]
  
    # Using partial waves for O as LCAO basis

  C:
    name: Carbon
    id: 4aa54d4b901d75f77cc0ea3eec22967b
    Z: 6.0
    valence: 4
    core: 2
    charge: 0.0
    file: /apps/Common/software/GPAW-setups/0.9.20000/C.PBE.gz
    compensation charges: {type: gauss,
                           rc: 0.20,
                           lmax: 2}
    cutoffs: {filter: 1.14,
              core: 1.14}
    valence states:
      #              energy  rcut
      - 2s(2.00)   -13.751   0.635
      - 2p(2.00)    -5.284   0.635
      -  s          13.461   0.635
      -  p          21.927   0.635
      -  d           0.000   0.635
  
    # Using partial waves for C as LCAO basis

Reference energy: -13951221.800367  # eV

Spin-paired calculation

Convergence criteria:
 Maximum [total energy] change in last 3 cyles: 0.0005 eV / electron
 Maximum integral of absolute [dens]ity change: 0.0001 electrons / valence electron
 Maximum integral of absolute [eigenst]ate change: 4e-08 eV^2 / valence electron
 Maximum number of scf [iter]ations: 333
 (Square brackets indicate name in SCF output, whereas a 'c' in
 the SCF output indicates the quantity has converged.)

Symmetries present (total): 1

  ( 1  0  0)
  ( 0  1  0)
  ( 0  0  1)

1 k-point (Gamma)
1 k-point in the irreducible part of the Brillouin zone
       k-points in crystal coordinates                weights
   0:     0.00000000    0.00000000    0.00000000          1/1

Wave functions: Uniform real-space grid
  Kinetic energy operator: 8*3+1=25 point O(h^6) finite-difference Laplacian
  ScaLapack parameters: grid=1x1, blocksize=None
  Wavefunction extrapolation:
    Improved wavefunction reuse through dual PAW basis 

Occupation numbers: Fermi-Dirac:
  width: 0.1000  # eV
 

Eigensolver
   Davidson(niter=2) 

Densities:
  Coarse grid: 40*40*144 grid
  Fine grid: 80*80*288 grid
  Total Charge: 0.000000 

Density mixing:
  Method: separate
  Backend: pulay
  Linear mixing parameter: 0.05
  old densities: 5
  Damping of long wavelength oscillations: 50 

Hamiltonian:
  XC and Coulomb potentials evaluated on a 80*80*288 grid
  Using the PBE Exchange-Correlation functional
  Interpolation: tri-quintic (5. degree polynomial)
  Poisson solver: FastPoissonSolver using
    Stencil: 8*3+1=25 point O(h^6) finite-difference Laplacian
    FFT axes: [0, 1, 2]
    FST axes: []
 

XC parameters: PBE with 2 nearest neighbor stencil

Memory estimate:
  Process memory now: 325.79 MiB
  Calculator: 50.00 MiB
    Density: 10.15 MiB
      Arrays: 2.30 MiB
      Localized functions: 6.97 MiB
      Mixer: 0.89 MiB
    Hamiltonian: 2.02 MiB
      Arrays: 1.50 MiB
      XC: 0.00 MiB
      Poisson: 0.00 MiB
      vbar: 0.52 MiB
    Wavefunctions: 37.83 MiB
      Arrays psit_nG: 16.73 MiB
      Eigensolver: 19.90 MiB
      Projections: 0.04 MiB
      Projectors: 1.16 MiB

Total number of cores used: 20
Domain decomposition: 2 x 2 x 5

Number of atoms: 29
Number of atomic orbitals: 251
Number of bands in calculation: 189
Number of valence electrons: 307
Bands to converge: occupied

... initialized

Initializing position-dependent things.

Density initialized from atomic densities
Creating initial wave functions:
  189 bands from LCAO basis set

                                              
                                              
                                              
                                              
                                              
                  Au     Au     Au            
                                              
            Au     AAu    AAu    Au           
       Au     Au     AAu    Au                
                                              
        Au     Au     AAu    Au     Au        
                                              
                 Au     Au     Au             
           Au      Au     Au                  
                                              
                         O                    
                                              
                         C                    
                                              
                                              
                                              
                                              
                                              
                                              

Positions:
   0 Au     1.480598    0.855415   12.116375    ( 0.0000,  0.0000,  0.0000)
   1 Au     4.414646    0.839182   12.128081    ( 0.0000,  0.0000,  0.0000)
   2 Au     7.364212    0.832483   12.137232    ( 0.0000,  0.0000,  0.0000)
   3 Au     2.940414    3.408996   12.125332    ( 0.0000,  0.0000,  0.0000)
   4 Au     5.908725    3.383414   12.174931    ( 0.0000,  0.0000,  0.0000)
   5 Au     8.856336    3.399504   12.135219    ( 0.0000,  0.0000,  0.0000)
   6 Au     4.409724    5.951975   12.139099    ( 0.0000,  0.0000,  0.0000)
   7 Au     7.365645    5.956212   12.142475    ( 0.0000,  0.0000,  0.0000)
   8 Au    10.319236    5.961917   12.115515    ( 0.0000,  0.0000,  0.0000)
   9 Au    -0.001748    1.708791   14.438122    ( 0.0000,  0.0000,  0.0000)
  10 Au     2.944929    1.698015   14.429733    ( 0.0000,  0.0000,  0.0000)
  11 Au     5.885828    1.678586   14.460981    ( 0.0000,  0.0000,  0.0000)
  12 Au     1.485162    4.268133   14.451270    ( 0.0000,  0.0000,  0.0000)
  13 Au     4.408677    4.259569   14.456692    ( 0.0000,  0.0000,  0.0000)
  14 Au     7.372202    4.247624   14.461228    ( 0.0000,  0.0000,  0.0000)
  15 Au     2.943357    6.805300   14.461265    ( 0.0000,  0.0000,  0.0000)
  16 Au     5.907163    6.805585   14.440016    ( 0.0000,  0.0000,  0.0000)
  17 Au     8.865308    6.802417   14.451968    ( 0.0000,  0.0000,  0.0000)
  18 Au     0.037660    0.009368   16.758684    ( 0.0000,  0.0000,  0.0000)
  19 Au     2.976959   -0.002067   16.753704    ( 0.0000,  0.0000,  0.0000)
  20 Au     5.910660   -0.005772   16.795171    ( 0.0000,  0.0000,  0.0000)
  21 Au     1.476515    2.559488   16.748211    ( 0.0000,  0.0000,  0.0000)
  22 Au     4.394817    2.549216   16.767786    ( 0.0000,  0.0000,  0.0000)
  23 Au     7.357048    2.525459   16.775010    ( 0.0000,  0.0000,  0.0000)
  24 Au     2.954288    5.115015   16.789601    ( 0.0000,  0.0000,  0.0000)
  25 Au     5.888106    5.107903   16.773142    ( 0.0000,  0.0000,  0.0000)
  26 Au     8.822847    5.082227   16.771917    ( 0.0000,  0.0000,  0.0000)
  27 O      6.068938    3.967997    8.885887    ( 0.0000,  0.0000,  0.0000)
  28 C      6.083473    3.996635    7.750571    ( 0.0000,  0.0000,  0.0000)

Unit cell:
           periodic     x           y           z      points  spacing
  1. axis:    yes    8.845906    0.000000    0.000000    40     0.1915
  2. axis:    yes    4.422953    7.660779    0.000000    40     0.1915
  3. axis:    yes    0.000000    0.000000   28.815101   144     0.2001

  Lengths:   8.845906   8.845906  28.815101
  Angles:   90.000000  90.000000  60.000000

Effective grid spacing dv^(1/3) = 0.2039

     iter     time        total  log10-change:
                         energy  eigst   dens
iter:   1 18:32:37  -107.255057
iter:   2 18:32:40  -106.416329  -0.70  -1.34
iter:   3 18:32:42  -103.693255  -1.33  -1.36
iter:   4 18:32:45  -100.590292  -1.00  -1.44
iter:   5 18:32:47  -100.476149  -1.33  -1.76
iter:   6 18:32:50  -100.477214c -2.07  -2.07
iter:   7 18:32:52  -100.354227c -2.01  -2.11
iter:   8 18:32:55  -100.343845c -2.69  -2.35
iter:   9 18:32:57  -100.284201c -2.87  -2.48
iter:  10 18:32:59  -100.281606c -2.90  -2.84
iter:  11 18:33:02  -100.279299c -3.89  -2.82
iter:  12 18:33:05  -100.280038c -3.80  -2.88
iter:  13 18:33:07  -100.281524c -4.06  -3.06
iter:  14 18:33:10  -100.282599c -4.24  -3.23
iter:  15 18:33:12  -100.282620c -4.44  -3.38
iter:  16 18:33:15  -100.280490c -4.54  -3.35
iter:  17 18:33:17  -100.280324c -5.45  -3.74
iter:  18 18:33:20  -100.280173c -5.70  -3.84
iter:  19 18:33:22  -100.279970c -5.44  -3.94
iter:  20 18:33:25  -100.280147c -5.82  -3.99
iter:  21 18:33:27  -100.280219c -6.18  -4.31c
iter:  22 18:33:30  -100.280065c -5.88  -4.23c
iter:  23 18:33:32  -100.280127c -6.73  -4.29c
iter:  24 18:33:35  -100.280133c -7.48c -4.72c

Converged after 24 iterations.

Dipole moment: (-5.002429, -2.411852, 0.020047) |e|*Ang

Energy contributions relative to reference atoms: (reference = -13951221.800367)

Kinetic:       -275.207971
Potential:     +212.220476
External:        +0.000000
XC:             -42.626501
Entropy (-ST):   -0.832130
Local:           +5.749928
--------------------------
Free energy:   -100.696197
Extrapolated:  -100.280133

 Band  Eigenvalues  Occupancy
    0    -25.79078    2.00000
    1    -10.80016    2.00000
    2     -9.93930    2.00000
    3     -8.45421    2.00000
    4     -8.43610    2.00000
    5     -8.14914    2.00000
    6     -7.89764    2.00000
    7     -7.89236    2.00000
    8     -7.88956    2.00000
    9     -7.88358    2.00000
   10     -7.87964    2.00000
   11     -7.87523    2.00000
   12     -7.86662    2.00000
   13     -7.22487    2.00000
   14     -7.21800    2.00000
   15     -7.21604    2.00000
   16     -7.21497    2.00000
   17     -7.20719    2.00000
   18     -7.19857    2.00000
   19     -7.04008    2.00000
   20     -7.03106    2.00000
   21     -7.02594    2.00000
   22     -7.02264    2.00000
   23     -7.01947    2.00000
   24     -7.01892    2.00000
   25     -6.75723    2.00000
   26     -6.74866    2.00000
   27     -6.73128    2.00000
   28     -6.71746    2.00000
   29     -6.71340    2.00000
   30     -6.70833    2.00000
   31     -6.48075    2.00000
   32     -6.47655    2.00000
   33     -6.47618    2.00000
   34     -6.47219    2.00000
   35     -6.46322    2.00000
   36     -6.45404    2.00000
   37     -6.18536    2.00000
   38     -6.18475    2.00000
   39     -6.17993    2.00000
   40     -6.17616    2.00000
   41     -5.80441    2.00000
   42     -5.80304    2.00000
   43     -5.79559    2.00000
   44     -5.79204    2.00000
   45     -5.78393    2.00000
   46     -5.77858    2.00000
   47     -5.67255    2.00000
   48     -5.65127    2.00000
   49     -5.65040    2.00000
   50     -5.51337    2.00000
   51     -5.48279    2.00000
   52     -5.47836    2.00000
   53     -5.47724    2.00000
   54     -5.47367    2.00000
   55     -5.46788    2.00000
   56     -5.46229    2.00000
   57     -5.34701    2.00000
   58     -5.33551    2.00000
   59     -5.33029    2.00000
   60     -5.31499    2.00000
   61     -5.30932    2.00000
   62     -5.30375    2.00000
   63     -5.29020    2.00000
   64     -5.27887    2.00000
   65     -5.27708    2.00000
   66     -5.26939    2.00000
   67     -5.17759    2.00000
   68     -5.11440    2.00000
   69     -5.11142    2.00000
   70     -5.10841    2.00000
   71     -5.09313    2.00000
   72     -5.09222    2.00000
   73     -5.08255    2.00000
   74     -4.92791    2.00000
   75     -4.92487    2.00000
   76     -4.89761    2.00000
   77     -4.89100    2.00000
   78     -4.87909    2.00000
   79     -4.87458    2.00000
   80     -4.87254    2.00000
   81     -4.86664    2.00000
   82     -4.86592    2.00000
   83     -4.85523    2.00000
   84     -4.40992    2.00000
   85     -4.40261    2.00000
   86     -4.40023    2.00000
   87     -4.39979    2.00000
   88     -4.38537    2.00000
   89     -4.37639    2.00000
   90     -4.27572    2.00000
   91     -4.26667    2.00000
   92     -4.26389    2.00000
   93     -4.26254    2.00000
   94     -4.24858    2.00000
   95     -4.23896    2.00000
   96     -4.18102    2.00000
   97     -4.17621    2.00000
   98     -4.14718    2.00000
   99     -4.14349    2.00000
  100     -4.13582    2.00000
  101     -4.13025    2.00000
  102     -4.04879    2.00000
  103     -4.04568    2.00000
  104     -4.04438    2.00000
  105     -4.04189    2.00000
  106     -4.03136    2.00000
  107     -4.01630    2.00000
  108     -3.73925    1.99997
  109     -3.73354    1.99997
  110     -3.73051    1.99996
  111     -3.72340    1.99996
  112     -3.72247    1.99996
  113     -3.71647    1.99996
  114     -3.71216    1.99996
  115     -3.70728    1.99996
  116     -3.70560    1.99996
  117     -3.70240    1.99995
  118     -3.70106    1.99995
  119     -3.69797    1.99995
  120     -3.68727    1.99995
  121     -3.68193    1.99994
  122     -3.43877    1.99935
  123     -3.43179    1.99931
  124     -3.42952    1.99929
  125     -3.42785    1.99928
  126     -3.41729    1.99920
  127     -3.41322    1.99916
  128     -3.40383    1.99908
  129     -3.39590    1.99901
  130     -3.38791    1.99892
  131     -3.38176    1.99885
  132     -3.32968    1.99807
  133     -3.31892    1.99785
  134     -3.31223    1.99771
  135     -3.30407    1.99751
  136     -3.30073    1.99743
  137     -3.29483    1.99727
  138     -3.28963    1.99713
  139     -3.28293    1.99693
  140     -3.16773    1.99031
  141     -3.16543    1.99008
  142     -3.04273    1.96657
  143     -3.03734    1.96475
  144     -3.03478    1.96385
  145     -3.02831    1.96148
  146     -3.02738    1.96113
  147     -3.02357    1.95965
  148     -2.80786    1.69777
  149     -2.79039    1.65016
  150     -2.78971    1.64819
  151     -2.78441    1.63256
  152     -2.77458    1.60216
  153     -2.76639    1.57541
  154     -2.73606    1.46520
  155     -0.75517    0.00000
  156     -0.12018    0.00000
  157     -0.11855    0.00000
  158     -0.09920    0.00000
  159     -0.09050    0.00000
  160     -0.08691    0.00000
  161     -0.05376    0.00000
  162      1.29039    0.00000
  163      1.30253    0.00000
  164      1.58771    0.00000
  165      1.59377    0.00000
  166      1.81167    0.00000
  167      1.81482    0.00000
  168      1.81691    0.00000
  169      1.82739    0.00000
  170      3.00701    0.00000
  171      3.36043    0.00000
  172      3.36889    0.00000
  173      3.37499    0.00000
  174      3.38712    0.00000
  175      3.39335    0.00000
  176      3.39557    0.00000
  177      3.52393    0.00000
  178      3.92419    0.00000
  179      3.93985    0.00000
  180      3.94718    0.00000
  181      3.94954    0.00000
  182      3.97967    0.00000
  183      3.98481    0.00000
  184      4.39238    0.00000
  185      5.08777    0.00000
  186      5.10019    0.00000
  187      5.10769    0.00000
  188      5.11716    0.00000

Fermi level: -2.63527

Gap: 1.981 eV
Transition (v -> c):
  (s=0, k=0, n=154, [0.00, 0.00, 0.00]) -> (s=0, k=0, n=155, [0.00, 0.00, 0.00])
Timing:                                      incl.     excl.
-------------------------------------------------------------------
Density initialized from wave functions:     0.578     0.577   0.0% |
 Symmetrize density:                         0.001     0.001   0.0% |
Forces:                                    130.950   130.950   5.5% |-|
Hamiltonian:                                12.825     0.005   0.0% |
 Atomic:                                     3.712     0.033   0.0% |
  XC Correction:                             3.679     3.679   0.2% |
 Calculate atomic Hamiltonians:              0.503     0.503   0.0% |
 Communicate:                                3.813     3.813   0.2% |
 Hartree integrate/restrict:                 0.126     0.126   0.0% |
 Initialize Hamiltonian:                     0.001     0.001   0.0% |
 Poisson:                                    2.423     0.075   0.0% |
  Communicate from 1D:                       0.488     0.488   0.0% |
  Communicate from 2D:                       0.532     0.532   0.0% |
  Communicate to 1D:                         0.469     0.469   0.0% |
  Communicate to 2D:                         0.507     0.507   0.0% |
  FFT 1D:                                    0.116     0.116   0.0% |
  FFT 2D:                                    0.236     0.236   0.0% |
 XC 3D grid:                                 2.221     2.221   0.1% |
 vbar:                                       0.022     0.022   0.0% |
LCAO initialization:                         2.152     0.660   0.0% |
 LCAO eigensolver:                           1.005     0.001   0.0% |
  Calculate projections:                     0.000     0.000   0.0% |
  DenseAtomicCorrection:                     0.000     0.000   0.0% |
  Distribute overlap matrix:                 0.956     0.956   0.0% |
  Orbital Layouts:                           0.047     0.047   0.0% |
  Potential matrix:                          0.000     0.000   0.0% |
 LCAO to grid:                               0.023     0.023   0.0% |
 Set positions (LCAO WFS):                   0.464     0.339   0.0% |
  Basic WFS set positions:                   0.003     0.003   0.0% |
  Basis functions set positions:             0.000     0.000   0.0% |
  P tci:                                     0.001     0.001   0.0% |
  ST tci:                                    0.033     0.033   0.0% |
  mktci:                                     0.088     0.088   0.0% |
Redistribute:                                0.026     0.026   0.0% |
SCF-cycle:                                2087.718     1.279   0.1% |
 Davidson:                                1855.644   779.283  32.8% |------------|
  Apply hamiltonian:                        68.522    68.522   2.9% ||
  Subspace diag:                           153.247     0.083   0.0% |
   calc_h_matrix:                           97.808    27.489   1.2% |
    Apply hamiltonian:                      70.319    70.319   3.0% ||
   diagonalize:                              9.264     9.264   0.4% |
   rotate_psi:                              46.091    46.091   1.9% ||
  calc. matrices:                          715.578   160.990   6.8% |--|
   Apply hamiltonian:                      554.589   554.589  23.3% |--------|
  diagonalize:                              54.295    54.295   2.3% ||
  rotate_psi:                               84.719    84.719   3.6% ||
 Density:                                    9.768     0.016   0.0% |
  Atomic density matrices:                   1.826     1.826   0.1% |
  Mix:                                       4.590     4.590   0.2% |
  Multipole moments:                         0.318     0.318   0.0% |
  Pseudo density:                            3.018     3.004   0.1% |
   Symmetrize density:                       0.014     0.014   0.0% |
 Hamiltonian:                              202.709     0.070   0.0% |
  Atomic:                                   58.155     0.508   0.0% |
   XC Correction:                           57.647    57.647   2.4% ||
  Calculate atomic Hamiltonians:             6.504     6.504   0.3% |
  Communicate:                              59.393    59.393   2.5% ||
  Hartree integrate/restrict:                1.872     1.872   0.1% |
  Poisson:                                  38.733     1.182   0.0% |
   Communicate from 1D:                      7.662     7.662   0.3% |
   Communicate from 2D:                      8.194     8.194   0.3% |
   Communicate to 1D:                        7.955     7.955   0.3% |
   Communicate to 2D:                        8.187     8.187   0.3% |
   FFT 1D:                                   1.827     1.827   0.1% |
   FFT 2D:                                   3.727     3.727   0.2% |
  XC 3D grid:                               37.683    37.683   1.6% ||
  vbar:                                      0.299     0.299   0.0% |
 Orthonormalize:                            18.317     0.007   0.0% |
  calc_s_matrix:                             0.701     0.701   0.0% |
  inverse-cholesky:                         16.117    16.117   0.7% |
  projections:                               0.002     0.002   0.0% |
  rotate_psi_s:                              1.491     1.491   0.1% |
Set symmetry:                                0.004     0.004   0.0% |
Other:                                     144.187   144.187   6.1% |-|
-------------------------------------------------------------------
Total:                                              2378.439 100.0%

Memory usage: 325.79 MiB
Date: Thu Feb 23 18:33:35 2023
