
  ___ ___ ___ _ _ _  
 |   |   |_  | | | | 
 | | | | | . | | | | 
 |__ |  _|___|_____|  22.8.0
 |___|_|             

User:   patriku@vera11-4
Date:   Fri Feb 24 08:58:31 2023
Arch:   x86_64
Pid:    2532290
CWD:    /cephyr/users/patriku/Vera/Assignment4/task6_vera/Rh
Python: 3.10.4
gpaw:   /apps/Arch/software/GPAW/22.8.0-foss-2022a/lib/python3.10/site-packages/gpaw
_gpaw:  /apps/Arch/software/GPAW/22.8.0-foss-2022a/lib/python3.10/site-packages/
        _gpaw.cpython-310-x86_64-linux-gnu.so
ase:    /apps/Arch/software/ASE/3.22.1-foss-2022a/lib/python3.10/site-packages/ase (version 3.22.1)
numpy:  /apps/Arch/software/SciPy-bundle/2022.05-foss-2022a/lib/python3.10/site-packages/numpy (version 1.22.3)
scipy:  /apps/Arch/software/SciPy-bundle/2022.05-foss-2022a/lib/python3.10/site-packages/scipy (version 1.8.1)
libxc:  5.2.3
units:  Angstrom and eV
cores: 20
OpenMP: False
OMP_NUM_THREADS: 1

Input parameters:
  kpts: [1 1 1]
  xc: PBE

System changes: positions, numbers, cell, pbc, initial_charges, initial_magmoms 

Initialize ...

species:
  Rh:
    name: Rhodium
    id: 4e1d209aee696a641de1ffa1459b299f
    Z: 45.0
    valence: 15
    core: 30
    charge: 0.0
    file: /apps/Common/software/GPAW-setups/0.9.20000/Rh.PBE.gz
    compensation charges: {type: gauss,
                           rc: 0.38,
                           lmax: 2}
    cutoffs: {filter: 2.48,
              core: 2.35}
    valence states:
      #              energy  rcut
      - 5s(1.00)    -4.297   1.270
      - 4p(6.00)   -50.429   1.381
      - 5p(0.00)    -0.852   1.381
      - 4d(8.00)    -5.942   1.244
      -  s          22.915   1.270
      -  d          21.270   1.244
  
    # Using partial waves for Rh as LCAO basis

  O:
    name: Oxygen
    id: 32ecd46bf208036f09c70b0ec9a88b78
    Z: 8.0
    valence: 6
    core: 2
    charge: 0.0
    file: /apps/Common/software/GPAW-setups/0.9.20000/O.PBE.gz
    compensation charges: {type: gauss,
                           rc: 0.21,
                           lmax: 2}
    cutoffs: {filter: 1.17,
              core: 0.83}
    valence states:
      #              energy  rcut
      - 2s(2.00)   -23.961   0.688
      - 2p(4.00)    -9.029   0.598
      -  s           3.251   0.688
      -  p          18.182   0.598
      -  d           0.000   0.619
  
    # Using partial waves for O as LCAO basis

  C:
    name: Carbon
    id: 4aa54d4b901d75f77cc0ea3eec22967b
    Z: 6.0
    valence: 4
    core: 2
    charge: 0.0
    file: /apps/Common/software/GPAW-setups/0.9.20000/C.PBE.gz
    compensation charges: {type: gauss,
                           rc: 0.20,
                           lmax: 2}
    cutoffs: {filter: 1.14,
              core: 1.14}
    valence states:
      #              energy  rcut
      - 2s(2.00)   -13.751   0.635
      - 2p(2.00)    -5.284   0.635
      -  s          13.461   0.635
      -  p          21.927   0.635
      -  d           0.000   0.635
  
    # Using partial waves for C as LCAO basis

Reference energy: -3516703.949422  # eV

Spin-paired calculation

Convergence criteria:
 Maximum [total energy] change in last 3 cyles: 0.0005 eV / electron
 Maximum integral of absolute [dens]ity change: 0.0001 electrons / valence electron
 Maximum integral of absolute [eigenst]ate change: 4e-08 eV^2 / valence electron
 Maximum number of scf [iter]ations: 333
 (Square brackets indicate name in SCF output, whereas a 'c' in
 the SCF output indicates the quantity has converged.)

Symmetries present (total): 1

  ( 1  0  0)
  ( 0  1  0)
  ( 0  0  1)

1 k-point (Gamma)
1 k-point in the irreducible part of the Brillouin zone
       k-points in crystal coordinates                weights
   0:     0.00000000    0.00000000    0.00000000          1/1

Wave functions: Uniform real-space grid
  Kinetic energy operator: 8*3+1=25 point O(h^6) finite-difference Laplacian
  ScaLapack parameters: grid=1x1, blocksize=None
  Wavefunction extrapolation:
    Improved wavefunction reuse through dual PAW basis 

Occupation numbers: Fermi-Dirac:
  width: 0.1000  # eV
 

Eigensolver
   Davidson(niter=2) 

Densities:
  Coarse grid: 36*36*144 grid
  Fine grid: 72*72*288 grid
  Total Charge: 0.000000 

Density mixing:
  Method: separate
  Backend: pulay
  Linear mixing parameter: 0.05
  old densities: 5
  Damping of long wavelength oscillations: 50 

Hamiltonian:
  XC and Coulomb potentials evaluated on a 72*72*288 grid
  Using the PBE Exchange-Correlation functional
  Interpolation: tri-quintic (5. degree polynomial)
  Poisson solver: FastPoissonSolver using
    Stencil: 8*3+1=25 point O(h^6) finite-difference Laplacian
    FFT axes: [0, 1, 2]
    FST axes: []
 

XC parameters: PBE with 2 nearest neighbor stencil

Memory estimate:
  Process memory now: 222.27 MiB
  Calculator: 54.99 MiB
    Density: 10.23 MiB
      Arrays: 1.86 MiB
      Localized functions: 7.65 MiB
      Mixer: 0.72 MiB
    Hamiltonian: 1.83 MiB
      Arrays: 1.22 MiB
      XC: 0.00 MiB
      Poisson: 0.00 MiB
      vbar: 0.61 MiB
    Wavefunctions: 42.94 MiB
      Arrays psit_nG: 18.14 MiB
      Eigensolver: 23.39 MiB
      Projections: 0.05 MiB
      Projectors: 1.37 MiB

Total number of cores used: 20
Domain decomposition: 2 x 2 x 5

Number of atoms: 29
Number of atomic orbitals: 332
Number of bands in calculation: 253
Number of valence electrons: 415
Bands to converge: occupied

... initialized

Initializing position-dependent things.

Density initialized from atomic densities
Creating initial wave functions:
  253 bands from LCAO basis set

                                           
                                           
                                           
                                           
                                           
                Rh     Rh     Rh           
            Rh   RRh    RRh    Rh          
       Rh     Rh    Rh                     
             Rh    Rh     Rh               
        Rh     Rh   RRh    Rh    Rh        
                                           
                Rh    Rh     Rh            
           Rh    Rh     Rh                 
                                           
                    O                      
                                           
                    C                      
                                           
                                           
                                           
                                           

Positions:
   0 Rh     1.354115    0.781798   12.046554    ( 0.0000,  0.0000,  0.0000)
   1 Rh     4.062328    0.781808   12.046558    ( 0.0000,  0.0000,  0.0000)
   2 Rh     6.770542    0.781798   12.046554    ( 0.0000,  0.0000,  0.0000)
   3 Rh     2.708230    3.127176   12.046558    ( 0.0000,  0.0000,  0.0000)
   4 Rh     5.416427    3.127176   12.046558    ( 0.0000,  0.0000,  0.0000)
   5 Rh     8.124657    3.127172   12.046558    ( 0.0000,  0.0000,  0.0000)
   6 Rh     4.062328    5.472562   12.046554    ( 0.0000,  0.0000,  0.0000)
   7 Rh     6.770539    5.472573   12.046558    ( 0.0000,  0.0000,  0.0000)
   8 Rh     9.478775    5.472573   12.046558    ( 0.0000,  0.0000,  0.0000)
   9 Rh    -0.000000    1.563605   14.211247    ( 0.0000,  0.0000,  0.0000)
  10 Rh     2.708215    1.563589   14.211243    ( 0.0000,  0.0000,  0.0000)
  11 Rh     5.416442    1.563589   14.211243    ( 0.0000,  0.0000,  0.0000)
  12 Rh     1.354100    3.908983   14.211241    ( 0.0000,  0.0000,  0.0000)
  13 Rh     4.062328    3.908982   14.211243    ( 0.0000,  0.0000,  0.0000)
  14 Rh     6.770557    3.908983   14.211241    ( 0.0000,  0.0000,  0.0000)
  15 Rh     2.708207    6.254357   14.211247    ( 0.0000,  0.0000,  0.0000)
  16 Rh     5.416450    6.254357   14.211247    ( 0.0000,  0.0000,  0.0000)
  17 Rh     8.124657    6.254353   14.211241    ( 0.0000,  0.0000,  0.0000)
  18 Rh    -0.000000    0.000000   16.375907    ( 0.0000,  0.0000,  0.0000)
  19 Rh     2.708237    0.000001   16.375899    ( 0.0000,  0.0000,  0.0000)
  20 Rh     5.416420    0.000001   16.375899    ( 0.0000,  0.0000,  0.0000)
  21 Rh     1.354119    2.345402   16.375899    ( 0.0000,  0.0000,  0.0000)
  22 Rh     4.062328    2.345386   16.375897    ( 0.0000,  0.0000,  0.0000)
  23 Rh     6.770538    2.345402   16.375899    ( 0.0000,  0.0000,  0.0000)
  24 Rh     2.708210    4.690757   16.375899    ( 0.0000,  0.0000,  0.0000)
  25 Rh     5.416446    4.690757   16.375899    ( 0.0000,  0.0000,  0.0000)
  26 Rh     8.124657    4.690773   16.375896    ( 0.0000,  0.0000,  0.0000)
  27 O      5.000000    1.000000   10.075170    ( 0.0000,  0.0000,  0.0000)
  28 C      5.000000    1.000000    8.924830    ( 0.0000,  0.0000,  0.0000)

Unit cell:
           periodic     x           y           z      points  spacing
  1. axis:    yes    8.124657    0.000000    0.000000    36     0.1954
  2. axis:    yes    4.062328    7.036159    0.000000    36     0.1954
  3. axis:    yes    0.000000    0.000000   28.422503   144     0.1974

  Lengths:   8.124657   8.124657  28.422503
  Angles:   90.000000  90.000000  60.000000

Effective grid spacing dv^(1/3) = 0.2057

     iter     time        total  log10-change:
                         energy  eigst   dens
iter:   1 08:58:39  -195.675584
iter:   2 08:58:43  -201.462586  -0.47  -1.33
iter:   3 08:58:46  -194.433737  -1.14  -1.25
iter:   4 08:58:50  -189.839039  -1.42  -1.33
iter:   5 08:58:53  -183.469559  -0.56  -1.42
iter:   6 08:58:57  -182.099008  -1.66  -1.72
iter:   7 08:59:00  -182.121689  -2.01  -1.93
iter:   8 08:59:04  -181.794573  -2.25  -1.94
iter:   9 08:59:07  -181.731625  -2.21  -2.12
iter:  10 08:59:10  -181.791989c -2.51  -2.32
iter:  11 08:59:14  -181.768159c -2.84  -2.27
iter:  12 08:59:17  -181.712909c -2.98  -2.28
iter:  13 08:59:21  -181.703982c -3.09  -2.45
iter:  14 08:59:24  -181.699837c -3.16  -2.45
iter:  15 08:59:28  -181.662275c -3.17  -2.46
iter:  16 08:59:31  -181.662751c -3.34  -2.68
iter:  17 08:59:34  -181.673037c -3.61  -2.73
iter:  18 08:59:38  -181.657384c -3.44  -2.63
iter:  19 08:59:41  -181.661941c -3.88  -2.91
iter:  20 08:59:45  -181.658094c -4.11  -2.96
iter:  21 08:59:48  -181.657555c -4.41  -3.06
iter:  22 08:59:52  -181.658247c -4.61  -3.15
iter:  23 08:59:55  -181.659427c -4.79  -3.15
iter:  24 08:59:59  -181.656606c -4.97  -3.05
iter:  25 09:00:02  -181.657159c -4.97  -3.26
iter:  26 09:00:06  -181.655821c -5.29  -3.35
iter:  27 09:00:09  -181.655228c -5.46  -3.33
iter:  28 09:00:12  -181.654776c -5.18  -3.46
iter:  29 09:00:16  -181.654390c -5.55  -3.48
iter:  30 09:00:19  -181.653893c -5.88  -3.44
iter:  31 09:00:23  -181.653819c -5.80  -3.63
iter:  32 09:00:26  -181.653437c -5.97  -3.62
iter:  33 09:00:30  -181.653443c -6.02  -3.62
iter:  34 09:00:33  -181.653392c -6.32  -3.74
iter:  35 09:00:36  -181.653422c -6.32  -3.85
iter:  36 09:00:40  -181.653440c -6.48  -3.77
iter:  37 09:00:43  -181.653508c -6.40  -3.86
iter:  38 09:00:47  -181.653495c -6.33  -4.19c
iter:  39 09:00:50  -181.653574c -6.85  -4.34c
iter:  40 09:00:53  -181.653579c -7.20  -4.44c
iter:  41 09:00:57  -181.653575c -7.30  -4.61c
iter:  42 09:01:00  -181.653600c -7.63c -4.42c

Converged after 42 iterations.

Dipole moment: (-3.377247, -2.838690, -0.088116) |e|*Ang

Energy contributions relative to reference atoms: (reference = -3516703.949422)

Kinetic:        -38.706410
Potential:      -23.309713
External:        +0.000000
XC:            -118.207194
Entropy (-ST):   -2.753859
Local:           -0.053353
--------------------------
Free energy:   -183.030529
Extrapolated:  -181.653600

 Band  Eigenvalues  Occupancy
    0    -47.89659    2.00000
    1    -47.82827    2.00000
    2    -47.82602    2.00000
    3    -47.82488    2.00000
    4    -47.82289    2.00000
    5    -47.81620    2.00000
    6    -47.81346    2.00000
    7    -47.78366    2.00000
    8    -47.77866    2.00000
    9    -47.69980    2.00000
   10    -47.69640    2.00000
   11    -47.69301    2.00000
   12    -47.69256    2.00000
   13    -47.69015    2.00000
   14    -47.68565    2.00000
   15    -47.66767    2.00000
   16    -47.66343    2.00000
   17    -47.66226    2.00000
   18    -47.66053    2.00000
   19    -47.39198    2.00000
   20    -47.38579    2.00000
   21    -47.38521    2.00000
   22    -47.38452    2.00000
   23    -47.37906    2.00000
   24    -47.37562    2.00000
   25    -47.35623    2.00000
   26    -47.34791    2.00000
   27    -47.32879    2.00000
   28    -47.32721    2.00000
   29    -47.32653    2.00000
   30    -47.32610    2.00000
   31    -47.31364    2.00000
   32    -47.30957    2.00000
   33    -47.30033    2.00000
   34    -47.29892    2.00000
   35    -47.29754    2.00000
   36    -47.29488    2.00000
   37    -47.29222    2.00000
   38    -47.29106    2.00000
   39    -47.28925    2.00000
   40    -47.28498    2.00000
   41    -47.28441    2.00000
   42    -47.28324    2.00000
   43    -47.28274    2.00000
   44    -47.28128    2.00000
   45    -47.24983    2.00000
   46    -47.24846    2.00000
   47    -47.18033    2.00000
   48    -47.07305    2.00000
   49    -47.04658    2.00000
   50    -47.04204    2.00000
   51    -47.03771    2.00000
   52    -47.03744    2.00000
   53    -47.03653    2.00000
   54    -47.03484    2.00000
   55    -47.03224    2.00000
   56    -47.03016    2.00000
   57    -47.02289    2.00000
   58    -47.02225    2.00000
   59    -47.02160    2.00000
   60    -47.01672    2.00000
   61    -47.01366    2.00000
   62    -47.01154    2.00000
   63    -47.01119    2.00000
   64    -47.00820    2.00000
   65    -47.00707    2.00000
   66    -47.00410    2.00000
   67    -46.99562    2.00000
   68    -46.98686    2.00000
   69    -46.98589    2.00000
   70    -46.98007    2.00000
   71    -46.97617    2.00000
   72    -46.97112    2.00000
   73    -46.97098    2.00000
   74    -46.96770    2.00000
   75    -46.96321    2.00000
   76    -46.95472    2.00000
   77    -46.94491    2.00000
   78    -46.94236    2.00000
   79    -46.93305    2.00000
   80    -46.93155    2.00000
   81    -26.15203    2.00000
   82    -12.38193    2.00000
   83     -9.09769    2.00000
   84     -9.01619    2.00000
   85     -7.80107    2.00000
   86     -6.49772    2.00000
   87     -6.36629    2.00000
   88     -6.16312    2.00000
   89     -6.16241    2.00000
   90     -6.16088    2.00000
   91     -6.15840    2.00000
   92     -6.15471    2.00000
   93     -6.15351    2.00000
   94     -5.98062    2.00000
   95     -5.94421    2.00000
   96     -5.94227    2.00000
   97     -5.93869    2.00000
   98     -5.93778    2.00000
   99     -5.93675    2.00000
  100     -5.83301    2.00000
  101     -5.69407    2.00000
  102     -5.69249    2.00000
  103     -5.69059    2.00000
  104     -5.68919    2.00000
  105     -5.68765    2.00000
  106     -5.65644    2.00000
  107     -5.37597    2.00000
  108     -5.37542    2.00000
  109     -5.37123    2.00000
  110     -5.36720    2.00000
  111     -5.24514    2.00000
  112     -5.24209    2.00000
  113     -5.23918    2.00000
  114     -5.23538    2.00000
  115     -5.23042    2.00000
  116     -5.22735    2.00000
  117     -5.22671    2.00000
  118     -5.20085    2.00000
  119     -4.51354    2.00000
  120     -4.51297    2.00000
  121     -4.51138    2.00000
  122     -4.50951    2.00000
  123     -4.23401    2.00000
  124     -4.23045    2.00000
  125     -4.22361    2.00000
  126     -4.22093    2.00000
  127     -4.21962    2.00000
  128     -4.17548    2.00000
  129     -3.78487    2.00000
  130     -3.77739    2.00000
  131     -3.77573    2.00000
  132     -3.77365    2.00000
  133     -3.77190    2.00000
  134     -3.75634    2.00000
  135     -3.74131    2.00000
  136     -3.69129    2.00000
  137     -3.69098    2.00000
  138     -3.61591    2.00000
  139     -3.61142    2.00000
  140     -3.48006    2.00000
  141     -3.47771    2.00000
  142     -3.34120    2.00000
  143     -3.29521    2.00000
  144     -3.28950    2.00000
  145     -3.28641    2.00000
  146     -3.28373    2.00000
  147     -3.28308    2.00000
  148     -3.28174    2.00000
  149     -3.26169    2.00000
  150     -3.25826    2.00000
  151     -3.25197    2.00000
  152     -3.23958    2.00000
  153     -3.23849    2.00000
  154     -3.23607    2.00000
  155     -3.23327    2.00000
  156     -3.20684    2.00000
  157     -3.17244    2.00000
  158     -3.17215    2.00000
  159     -3.15416    2.00000
  160     -3.14739    2.00000
  161     -3.14464    2.00000
  162     -3.14133    2.00000
  163     -3.13979    2.00000
  164     -3.05904    2.00000
  165     -2.41068    2.00000
  166     -2.40447    2.00000
  167     -2.39160    2.00000
  168     -2.38820    2.00000
  169     -2.38690    2.00000
  170     -2.20958    1.99999
  171     -1.94210    1.99990
  172     -1.93565    1.99990
  173     -1.91701    1.99988
  174     -1.91439    1.99987
  175     -1.91301    1.99987
  176     -1.91152    1.99987
  177     -1.89468    1.99985
  178     -1.88489    1.99983
  179     -1.88249    1.99983
  180     -1.88177    1.99983
  181     -1.87022    1.99980
  182     -1.85848    1.99978
  183     -1.85390    1.99977
  184     -1.84694    1.99975
  185     -1.84600    1.99975
  186     -1.82869    1.99970
  187     -1.79740    1.99960
  188     -1.79635    1.99959
  189     -1.24936    1.90731
  190     -1.23218    1.89089
  191     -1.23144    1.89012
  192     -1.22631    1.88468
  193     -1.22133    1.87914
  194     -1.21738    1.87457
  195     -1.21655    1.87360
  196     -1.21451    1.87116
  197     -1.18040    1.82341
  198     -1.17131    1.80822
  199     -1.16857    1.80342
  200     -1.16499    1.79697
  201     -1.16151    1.79053
  202     -1.16051    1.78866
  203     -1.03224    1.40242
  204     -0.94047    0.96766
  205     -0.93513    0.94102
  206     -0.92993    0.91519
  207     -0.92721    0.90171
  208     -0.92686    0.89995
  209     -0.92526    0.89202
  210     -0.87438    0.65233
  211     -0.86538    0.61342
  212     -0.86351    0.60548
  213     -0.84678    0.53728
  214     -0.76677    0.28329
  215     -0.76158    0.27091
  216     -0.75947    0.26600
  217     -0.75816    0.26299
  218     -0.75701    0.26037
  219     -0.75503    0.25594
  220     -0.60599    0.06400
  221     -0.60302    0.06219
  222     -0.46883    0.01663
  223     -0.46670    0.01629
  224     -0.35518    0.00537
  225     -0.35146    0.00517
  226     -0.34024    0.00463
  227     -0.33951    0.00459
  228     -0.33763    0.00451
  229     -0.33577    0.00442
  230     -0.20014    0.00114
  231     -0.19374    0.00107
  232     -0.18634    0.00099
  233     -0.18402    0.00097
  234     -0.17884    0.00092
  235      0.02827    0.00012
  236      0.53183    0.00000
  237      1.03813    0.00000
  238      1.04839    0.00000
  239      2.68524    0.00000
  240      2.69579    0.00000
  241      2.71469    0.00000
  242      2.73723    0.00000
  243      2.79619    0.00000
  244      3.24812    0.00000
  245      3.59058    0.00000
  246      3.83301    0.00000
  247      4.18368    0.00000
  248      4.89001    0.00000
  249      5.24380    0.00000
  250      5.25360    0.00000
  251      5.32906    0.00000
  252      5.41133    0.00000

Fermi level: -0.94694

Gap: 0.092 eV
Transition (v -> c):
  (s=0, k=0, n=203, [0.00, 0.00, 0.00]) -> (s=0, k=0, n=204, [0.00, 0.00, 0.00])

Forces in eV/Ang:
  0 Rh   -0.16335   -0.04900    0.87419
  1 Rh   -0.22126    0.03050    1.03268
  2 Rh    0.53474   -0.00784    1.20825
  3 Rh   -0.09255    0.16172    0.99838
  4 Rh    0.12984    0.42751    1.18178
  5 Rh    0.05867    0.04574    0.86884
  6 Rh   -0.03090   -0.04064    0.72562
  7 Rh   -0.11701   -0.13582    0.86232
  8 Rh    0.09710   -0.30848    1.08909
  9 Rh    0.02870   -0.01345   -0.02499
 10 Rh    0.08863   -0.10410   -0.05511
 11 Rh   -0.00782   -0.00809    0.23722
 12 Rh   -0.05265   -0.06397   -0.07957
 13 Rh   -0.00271    0.00890    0.04388
 14 Rh    0.00313    0.02773    0.00561
 15 Rh    0.00575    0.01379    0.10144
 16 Rh    0.03427    0.03204    0.01163
 17 Rh   -0.02727    0.07914    0.12941
 18 Rh   -0.03079    0.01014   -0.84660
 19 Rh    0.01490    0.01122   -0.87823
 20 Rh    0.00384    0.00510   -0.89141
 21 Rh   -0.01761    0.03896   -0.80299
 22 Rh    0.00677    0.00141   -0.90317
 23 Rh   -0.01500   -0.01586   -0.94735
 24 Rh   -0.01609   -0.00773   -0.87753
 25 Rh    0.00361   -0.03447   -0.81331
 26 Rh    0.02245   -0.01165   -0.86675
 27 O    -0.29832   -0.09125   -1.16697
 28 C     0.08991    0.02194   -0.14570

System changes: positions 

Initializing position-dependent things.

Density initialized from wave functions
                                           
                                           
                                           
                                           
                                           
                Rh     Rh     Rh           
            Rh   RRh    RRh    Rh          
       Rh     Rh    Rh                     
             Rh    Rh     Rh               
        Rh     Rh   RRh    Rh    Rh        
                                           
                Rh    Rh     Rh            
           Rh    Rh     Rh                 
                                           
                    O                      
                                           
                    C                      
                                           
                                           
                                           
                                           

Positions:
   0 Rh     1.351781    0.781098   12.059043    ( 0.0000,  0.0000,  0.0000)
   1 Rh     4.059168    0.782244   12.061310    ( 0.0000,  0.0000,  0.0000)
   2 Rh     6.778181    0.781686   12.063815    ( 0.0000,  0.0000,  0.0000)
   3 Rh     2.706908    3.129486   12.060820    ( 0.0000,  0.0000,  0.0000)
   4 Rh     5.418282    3.133283   12.063440    ( 0.0000,  0.0000,  0.0000)
   5 Rh     8.125495    3.127826   12.058970    ( 0.0000,  0.0000,  0.0000)
   6 Rh     4.061887    5.471982   12.056920    ( 0.0000,  0.0000,  0.0000)
   7 Rh     6.768867    5.470633   12.058877    ( 0.0000,  0.0000,  0.0000)
   8 Rh     9.480162    5.468166   12.062116    ( 0.0000,  0.0000,  0.0000)
   9 Rh     0.000410    1.563413   14.210890    ( 0.0000,  0.0000,  0.0000)
  10 Rh     2.709481    1.562102   14.210456    ( 0.0000,  0.0000,  0.0000)
  11 Rh     5.416330    1.563473   14.214632    ( 0.0000,  0.0000,  0.0000)
  12 Rh     1.353348    3.908069   14.210104    ( 0.0000,  0.0000,  0.0000)
  13 Rh     4.062290    3.909109   14.211870    ( 0.0000,  0.0000,  0.0000)
  14 Rh     6.770602    3.909379   14.211321    ( 0.0000,  0.0000,  0.0000)
  15 Rh     2.708289    6.254554   14.212696    ( 0.0000,  0.0000,  0.0000)
  16 Rh     5.416940    6.254815   14.211413    ( 0.0000,  0.0000,  0.0000)
  17 Rh     8.124267    6.255483   14.213090    ( 0.0000,  0.0000,  0.0000)
  18 Rh    -0.000440    0.000145   16.363813    ( 0.0000,  0.0000,  0.0000)
  19 Rh     2.708450    0.000161   16.363353    ( 0.0000,  0.0000,  0.0000)
  20 Rh     5.416475    0.000073   16.363165    ( 0.0000,  0.0000,  0.0000)
  21 Rh     1.353867    2.345958   16.364428    ( 0.0000,  0.0000,  0.0000)
  22 Rh     4.062425    2.345407   16.362995    ( 0.0000,  0.0000,  0.0000)
  23 Rh     6.770324    2.345175   16.362365    ( 0.0000,  0.0000,  0.0000)
  24 Rh     2.707981    4.690646   16.363363    ( 0.0000,  0.0000,  0.0000)
  25 Rh     5.416498    4.690265   16.364280    ( 0.0000,  0.0000,  0.0000)
  26 Rh     8.124978    4.690606   16.363514    ( 0.0000,  0.0000,  0.0000)
  27 O      4.995738    0.998696   10.058499    ( 0.0000,  0.0000,  0.0000)
  28 C      5.001284    1.000313    8.922749    ( 0.0000,  0.0000,  0.0000)

Unit cell:
           periodic     x           y           z      points  spacing
  1. axis:    yes    8.124657    0.000000    0.000000    36     0.1954
  2. axis:    yes    4.062328    7.036159    0.000000    36     0.1954
  3. axis:    yes    0.000000    0.000000   28.422503   144     0.1974

  Lengths:   8.124657   8.124657  28.422503
  Angles:   90.000000  90.000000  60.000000

Effective grid spacing dv^(1/3) = 0.2057

     iter     time        total  log10-change:
                         energy  eigst   dens
iter:   1 09:01:14  -183.668262  -1.63
iter:   2 09:01:17  -188.840663  -1.61  -1.80
iter:   3 09:01:21  -190.733067  -1.77  -1.52
iter:   4 09:01:24  -181.974842  -2.33  -1.46
iter:   5 09:01:28  -181.952233  -3.07  -2.57
iter:   6 09:01:31  -181.936815c -3.41  -2.67
iter:   7 09:01:35  -181.928635c -3.85  -2.74
iter:   8 09:01:38  -181.922529c -4.28  -2.89
iter:   9 09:01:42  -181.922929c -4.75  -3.13
iter:  10 09:01:45  -181.923347c -4.65  -3.27
iter:  11 09:01:49  -181.923295c -4.92  -3.37
iter:  12 09:01:52  -181.923359c -5.31  -3.57
iter:  13 09:01:56  -181.923208c -5.79  -3.50
iter:  14 09:01:59  -181.923018c -6.01  -3.61
iter:  15 09:02:02  -181.922410c -5.79  -3.61
iter:  16 09:02:06  -181.921954c -5.83  -3.71
iter:  17 09:02:09  -181.921925c -6.07  -3.88
iter:  18 09:02:13  -181.921767c -6.37  -3.99
iter:  19 09:02:17  -181.921850c -6.25  -3.86
iter:  20 09:02:20  -181.921712c -6.50  -3.88
iter:  21 09:02:24  -181.921647c -6.68  -4.15c
iter:  22 09:02:27  -181.921657c -6.97  -4.37c
iter:  23 09:02:30  -181.921685c -7.23  -4.51c
iter:  24 09:02:34  -181.921637c -7.41c -4.51c

Converged after 24 iterations.

Dipole moment: (-3.381600, -2.862242, -0.088851) |e|*Ang

Energy contributions relative to reference atoms: (reference = -3516703.949422)

Kinetic:        -30.131748
Potential:      -30.413417
External:        +0.000000
XC:            -119.962193
Entropy (-ST):   -2.704917
Local:           -0.061820
--------------------------
Free energy:   -183.274096
Extrapolated:  -181.921637

 Band  Eigenvalues  Occupancy
    0    -47.92614    2.00000
    1    -47.85538    2.00000
    2    -47.85455    2.00000
    3    -47.85375    2.00000
    4    -47.84985    2.00000
    5    -47.84412    2.00000
    6    -47.84163    2.00000
    7    -47.81010    2.00000
    8    -47.80608    2.00000
    9    -47.71587    2.00000
   10    -47.71131    2.00000
   11    -47.70768    2.00000
   12    -47.70735    2.00000
   13    -47.70574    2.00000
   14    -47.70211    2.00000
   15    -47.68207    2.00000
   16    -47.67881    2.00000
   17    -47.67735    2.00000
   18    -47.67628    2.00000
   19    -47.40576    2.00000
   20    -47.39884    2.00000
   21    -47.39798    2.00000
   22    -47.39739    2.00000
   23    -47.39251    2.00000
   24    -47.38925    2.00000
   25    -47.34338    2.00000
   26    -47.33814    2.00000
   27    -47.33245    2.00000
   28    -47.33223    2.00000
   29    -47.33008    2.00000
   30    -47.32778    2.00000
   31    -47.31146    2.00000
   32    -47.30939    2.00000
   33    -47.30335    2.00000
   34    -47.29965    2.00000
   35    -47.29919    2.00000
   36    -47.29744    2.00000
   37    -47.29623    2.00000
   38    -47.29575    2.00000
   39    -47.29569    2.00000
   40    -47.29387    2.00000
   41    -47.29234    2.00000
   42    -47.29078    2.00000
   43    -47.28905    2.00000
   44    -47.27993    2.00000
   45    -47.25003    2.00000
   46    -47.24949    2.00000
   47    -47.17064    2.00000
   48    -47.08708    2.00000
   49    -47.04584    2.00000
   50    -47.04314    2.00000
   51    -47.04040    2.00000
   52    -47.03995    2.00000
   53    -47.03822    2.00000
   54    -47.03713    2.00000
   55    -47.03503    2.00000
   56    -47.03216    2.00000
   57    -47.02878    2.00000
   58    -47.02774    2.00000
   59    -47.02719    2.00000
   60    -47.02580    2.00000
   61    -47.02465    2.00000
   62    -47.02118    2.00000
   63    -47.02008    2.00000
   64    -47.01733    2.00000
   65    -47.01651    2.00000
   66    -47.01342    2.00000
   67    -47.00870    2.00000
   68    -46.99933    2.00000
   69    -46.99636    2.00000
   70    -46.99356    2.00000
   71    -46.99154    2.00000
   72    -46.98477    2.00000
   73    -46.98403    2.00000
   74    -46.98021    2.00000
   75    -46.97424    2.00000
   76    -46.96781    2.00000
   77    -46.94666    2.00000
   78    -46.94430    2.00000
   79    -46.93418    2.00000
   80    -46.93337    2.00000
   81    -26.34685    2.00000
   82    -12.31712    2.00000
   83     -9.18361    2.00000
   84     -9.10967    2.00000
   85     -7.82777    2.00000
   86     -6.53190    2.00000
   87     -6.37271    2.00000
   88     -6.19884    2.00000
   89     -6.19763    2.00000
   90     -6.19709    2.00000
   91     -6.19419    2.00000
   92     -6.19195    2.00000
   93     -6.19137    2.00000
   94     -5.99220    2.00000
   95     -5.97204    2.00000
   96     -5.97155    2.00000
   97     -5.97115    2.00000
   98     -5.96941    2.00000
   99     -5.96747    2.00000
  100     -5.83153    2.00000
  101     -5.73314    2.00000
  102     -5.73229    2.00000
  103     -5.73103    2.00000
  104     -5.72943    2.00000
  105     -5.72734    2.00000
  106     -5.68806    2.00000
  107     -5.42381    2.00000
  108     -5.42114    2.00000
  109     -5.41877    2.00000
  110     -5.41432    2.00000
  111     -5.28238    2.00000
  112     -5.28042    2.00000
  113     -5.24663    2.00000
  114     -5.24352    2.00000
  115     -5.24089    2.00000
  116     -5.24059    2.00000
  117     -5.23849    2.00000
  118     -5.21430    2.00000
  119     -4.55080    2.00000
  120     -4.54956    2.00000
  121     -4.54885    2.00000
  122     -4.54601    2.00000
  123     -4.24888    2.00000
  124     -4.24602    2.00000
  125     -4.24263    2.00000
  126     -4.24159    2.00000
  127     -4.23814    2.00000
  128     -4.19455    2.00000
  129     -3.78616    2.00000
  130     -3.77883    2.00000
  131     -3.77597    2.00000
  132     -3.77576    2.00000
  133     -3.77474    2.00000
  134     -3.75051    2.00000
  135     -3.73184    2.00000
  136     -3.72257    2.00000
  137     -3.72165    2.00000
  138     -3.62633    2.00000
  139     -3.61910    2.00000
  140     -3.51106    2.00000
  141     -3.50894    2.00000
  142     -3.35110    2.00000
  143     -3.34671    2.00000
  144     -3.34218    2.00000
  145     -3.34016    2.00000
  146     -3.33742    2.00000
  147     -3.33732    2.00000
  148     -3.32868    2.00000
  149     -3.26897    2.00000
  150     -3.26537    2.00000
  151     -3.25759    2.00000
  152     -3.24618    2.00000
  153     -3.24491    2.00000
  154     -3.24062    2.00000
  155     -3.23738    2.00000
  156     -3.21460    2.00000
  157     -3.17696    2.00000
  158     -3.17672    2.00000
  159     -3.16712    2.00000
  160     -3.16110    2.00000
  161     -3.15963    2.00000
  162     -3.15541    2.00000
  163     -3.15192    2.00000
  164     -3.07435    2.00000
  165     -2.41555    2.00000
  166     -2.40990    2.00000
  167     -2.39690    2.00000
  168     -2.39409    2.00000
  169     -2.39233    2.00000
  170     -2.22489    1.99999
  171     -1.96132    1.99992
  172     -1.95722    1.99992
  173     -1.94351    1.99991
  174     -1.94037    1.99990
  175     -1.93870    1.99990
  176     -1.93606    1.99990
  177     -1.89243    1.99984
  178     -1.87617    1.99982
  179     -1.87084    1.99981
  180     -1.86610    1.99980
  181     -1.86228    1.99979
  182     -1.86086    1.99978
  183     -1.86031    1.99978
  184     -1.85254    1.99977
  185     -1.85058    1.99976
  186     -1.83644    1.99972
  187     -1.80544    1.99963
  188     -1.80518    1.99962
  189     -1.25379    1.91085
  190     -1.24624    1.90420
  191     -1.23294    1.89131
  192     -1.22345    1.88113
  193     -1.21534    1.87173
  194     -1.21256    1.86836
  195     -1.20943    1.86445
  196     -1.20672    1.86100
  197     -1.19213    1.84090
  198     -1.18165    1.82486
  199     -1.17786    1.81870
  200     -1.17655    1.81654
  201     -1.17240    1.80950
  202     -1.17122    1.80745
  203     -1.03175    1.39887
  204     -0.94835    1.00534
  205     -0.94238    0.97549
  206     -0.93351    0.93126
  207     -0.92978    0.91270
  208     -0.92785    0.90314
  209     -0.92641    0.89600
  210     -0.86656    0.61698
  211     -0.85815    0.58165
  212     -0.85682    0.57619
  213     -0.84078    0.51270
  214     -0.76510    0.27842
  215     -0.76008    0.26660
  216     -0.75580    0.25688
  217     -0.75534    0.25585
  218     -0.75292    0.25050
  219     -0.75108    0.24649
  220     -0.59378    0.05666
  221     -0.59098    0.05514
  222     -0.45342    0.01423
  223     -0.45088    0.01387
  224     -0.33292    0.00428
  225     -0.32846    0.00410
  226     -0.31924    0.00374
  227     -0.31720    0.00366
  228     -0.31660    0.00364
  229     -0.31366    0.00354
  230     -0.18636    0.00099
  231     -0.17923    0.00092
  232     -0.17472    0.00088
  233     -0.16957    0.00084
  234     -0.16497    0.00080
  235      0.04249    0.00010
  236      0.52957    0.00000
  237      1.14929    0.00000
  238      1.15883    0.00000
  239      2.70948    0.00000
  240      2.72181    0.00000
  241      2.74230    0.00000
  242      2.76099    0.00000
  243      2.81397    0.00000
  244      3.25515    0.00000
  245      3.59233    0.00000
  246      3.83495    0.00000
  247      4.18603    0.00000
  248      4.77916    0.00000
  249      5.25984    0.00000
  250      5.26938    0.00000
  251      5.34487    0.00000
  252      5.42626    0.00000

Fermi level: -0.94728

Gap: 0.006 eV
Transition (v -> c):
  (s=0, k=0, n=204, [0.00, 0.00, 0.00]) -> (s=0, k=0, n=205, [0.00, 0.00, 0.00])

Forces in eV/Ang:
  0 Rh   -0.16199   -0.04957    0.82590
  1 Rh   -0.21836    0.03659    0.96799
  2 Rh    0.55755   -0.01005    1.16577
  3 Rh   -0.06521    0.15553    0.95639
  4 Rh    0.12759    0.42443    1.12793
  5 Rh    0.02898    0.04221    0.82550
  6 Rh   -0.06039   -0.03887    0.67588
  7 Rh   -0.08983   -0.13576    0.81843
  8 Rh    0.09157   -0.30099    1.04294
  9 Rh    0.03766    0.00410   -0.01710
 10 Rh    0.07757   -0.09233   -0.07220
 11 Rh   -0.00263   -0.00553    0.20432
 12 Rh   -0.05605   -0.06779   -0.06144
 13 Rh   -0.01136    0.01716    0.04679
 14 Rh    0.01958    0.02627    0.01171
 15 Rh    0.00869    0.00172    0.09677
 16 Rh    0.02379    0.02485    0.01574
 17 Rh   -0.02322    0.06847    0.11071
 18 Rh   -0.02337    0.01211   -0.80978
 19 Rh    0.00582    0.01087   -0.84407
 20 Rh    0.00687   -0.00327   -0.86009
 21 Rh   -0.01619    0.03987   -0.75032
 22 Rh   -0.00486    0.01048   -0.87090
 23 Rh    0.00012   -0.00991   -0.91300
 24 Rh   -0.02152   -0.01501   -0.83403
 25 Rh    0.00374   -0.02969   -0.78008
 26 Rh    0.02658   -0.01693   -0.82071
 27 O    -0.32937   -0.09792    0.29825
 28 C     0.10061    0.02522   -1.59581

System changes: positions 

Initializing position-dependent things.

Density initialized from wave functions
                                           
                                           
                                           
                                           
                                           
                Rh     Rh     Rh           
            Rh   RRh    RRh    Rh          
       Rh     Rh   RRh    Rh               
             Rh                            
        Rh     Rh   RRh    Rh    Rh        
               Rh     Rh     Rh            
                                           
           Rh    Rh     Rh                 
                                           
                    O                      
                                           
                    C                      
                                           
                                           
                                           
                                           

Positions:
   0 Rh     1.326932    0.773592   12.189794    ( 0.0000,  0.0000,  0.0000)
   1 Rh     4.025567    0.787228   12.215351    ( 0.0000,  0.0000,  0.0000)
   2 Rh     6.861011    0.780370   12.245852    ( 0.0000,  0.0000,  0.0000)
   3 Rh     2.694275    3.153823   12.210863    ( 0.0000,  0.0000,  0.0000)
   4 Rh     5.437969    3.198343   12.240820    ( 0.0000,  0.0000,  0.0000)
   5 Rh     8.132830    3.134612   12.189175    ( 0.0000,  0.0000,  0.0000)
   6 Rh     4.055567    5.465877   12.164925    ( 0.0000,  0.0000,  0.0000)
   7 Rh     6.752494    5.449914   12.188057    ( 0.0000,  0.0000,  0.0000)
   8 Rh     9.494677    5.421507   12.225773    ( 0.0000,  0.0000,  0.0000)
   9 Rh     0.005277    1.562316   14.207506    ( 0.0000,  0.0000,  0.0000)
  10 Rh     2.722402    1.546859   14.201118    ( 0.0000,  0.0000,  0.0000)
  11 Rh     5.415419    1.562378   14.249036    ( 0.0000,  0.0000,  0.0000)
  12 Rh     1.345130    3.898100   14.198951    ( 0.0000,  0.0000,  0.0000)
  13 Rh     4.061405    3.910917   14.218723    ( 0.0000,  0.0000,  0.0000)
  14 Rh     6.771974    3.913530   14.212510    ( 0.0000,  0.0000,  0.0000)
  15 Rh     2.709326    6.256001   14.227919    ( 0.0000,  0.0000,  0.0000)
  16 Rh     5.421597    6.259311   14.213411    ( 0.0000,  0.0000,  0.0000)
  17 Rh     8.120327    6.266978   14.231817    ( 0.0000,  0.0000,  0.0000)
  18 Rh    -0.004733    0.001799   16.236646    ( 0.0000,  0.0000,  0.0000)
  19 Rh     2.710230    0.001854   16.231216    ( 0.0000,  0.0000,  0.0000)
  20 Rh     5.417226    0.000395   16.228861    ( 0.0000,  0.0000,  0.0000)
  21 Rh     1.351258    2.351952   16.244778    ( 0.0000,  0.0000,  0.0000)
  22 Rh     4.062825    2.346115   16.226949    ( 0.0000,  0.0000,  0.0000)
  23 Rh     6.768859    2.343079   16.219692    ( 0.0000,  0.0000,  0.0000)
  24 Rh     2.705229    4.689071   16.231841    ( 0.0000,  0.0000,  0.0000)
  25 Rh     5.417055    4.685265   16.241997    ( 0.0000,  0.0000,  0.0000)
  26 Rh     8.128628    4.688542   16.233775    ( 0.0000,  0.0000,  0.0000)
  27 O      4.948531    0.984411    9.960205    ( 0.0000,  0.0000,  0.0000)
  28 C      5.015585    1.003840    8.821582    ( 0.0000,  0.0000,  0.0000)

Unit cell:
           periodic     x           y           z      points  spacing
  1. axis:    yes    8.124657    0.000000    0.000000    36     0.1954
  2. axis:    yes    4.062328    7.036159    0.000000    36     0.1954
  3. axis:    yes    0.000000    0.000000   28.422503   144     0.1974

  Lengths:   8.124657   8.124657  28.422503
  Angles:   90.000000  90.000000  60.000000

Effective grid spacing dv^(1/3) = 0.2057

     iter     time        total  log10-change:
                         energy  eigst   dens
iter:   1 09:02:48  -297.298881  +0.38
iter:   2 09:02:52  -202.297804  -0.14  -0.93
iter:   3 09:02:55  -286.359096  -0.39  -1.31
iter:   4 09:02:58  -198.422746  -1.27  -1.05
iter:   5 09:03:02  -183.736112  -1.37  -1.40
iter:   6 09:03:05  -184.801016  -2.16  -1.85
iter:   7 09:03:08  -183.203012  -2.16  -1.75
iter:   8 09:03:12  -183.143406  -2.71  -2.06
iter:   9 09:03:15  -182.895195  -2.48  -2.06
iter:  10 09:03:18  -182.854095  -2.96  -2.23
iter:  11 09:03:22  -182.792851c -3.05  -2.30
iter:  12 09:03:25  -182.801735c -3.15  -2.49
iter:  13 09:03:29  -182.799094c -3.61  -2.53
iter:  14 09:03:32  -182.791790c -3.66  -2.57
iter:  15 09:03:36  -182.778372c -3.78  -2.61
iter:  16 09:03:39  -182.775751c -4.01  -2.86
iter:  17 09:03:43  -182.776961c -3.93  -2.93
iter:  18 09:03:46  -182.773721c -4.36  -3.03
iter:  19 09:03:50  -182.774320c -4.36  -3.16
iter:  20 09:03:53  -182.773958c -4.58  -3.20
iter:  21 09:03:57  -182.773708c -4.83  -3.44
iter:  22 09:04:00  -182.773510c -4.98  -3.36
iter:  23 09:04:04  -182.773469c -5.41  -3.65
iter:  24 09:04:07  -182.773482c -5.66  -3.69
iter:  25 09:04:11  -182.773330c -5.76  -3.69
iter:  26 09:04:15  -182.773305c -5.91  -3.80
iter:  27 09:04:18  -182.773206c -6.00  -3.86
iter:  28 09:04:22  -182.773398c -6.25  -3.84
iter:  29 09:04:25  -182.773546c -5.96  -4.03c
iter:  30 09:04:29  -182.773590c -6.56  -4.09c
iter:  31 09:04:32  -182.773642c -6.62  -4.35c
iter:  32 09:04:36  -182.773648c -6.52  -4.29c
iter:  33 09:04:39  -182.773600c -6.97  -4.53c
iter:  34 09:04:43  -182.773599c -6.95  -4.44c
iter:  35 09:04:47  -182.773537c -7.29  -4.69c
iter:  36 09:04:50  -182.773480c -7.30  -4.89c
iter:  37 09:04:54  -182.773478c -7.72c -5.07c

Converged after 37 iterations.

Dipole moment: (-3.415221, -3.096106, -0.090274) |e|*Ang

Energy contributions relative to reference atoms: (reference = -3516703.949422)

Kinetic:        +86.523945
Potential:     -128.032859
External:        +0.000000
XC:            -139.774688
Entropy (-ST):   -2.264201
Local:           -0.357776
--------------------------
Free energy:   -183.905578
Extrapolated:  -182.773478

 Band  Eigenvalues  Occupancy
    0    -48.24814    2.00000
    1    -48.17982    2.00000
    2    -48.16841    2.00000
    3    -48.15933    2.00000
    4    -48.13577    2.00000
    5    -48.12879    2.00000
    6    -48.11940    2.00000
    7    -48.08901    2.00000
    8    -48.07977    2.00000
    9    -47.91823    2.00000
   10    -47.91317    2.00000
   11    -47.90402    2.00000
   12    -47.89601    2.00000
   13    -47.89191    2.00000
   14    -47.88450    2.00000
   15    -47.86747    2.00000
   16    -47.86511    2.00000
   17    -47.85735    2.00000
   18    -47.85119    2.00000
   19    -47.57244    2.00000
   20    -47.56214    2.00000
   21    -47.55923    2.00000
   22    -47.55144    2.00000
   23    -47.54874    2.00000
   24    -47.54694    2.00000
   25    -47.44991    2.00000
   26    -47.44853    2.00000
   27    -47.42516    2.00000
   28    -47.41172    2.00000
   29    -47.39843    2.00000
   30    -47.38214    2.00000
   31    -47.37106    2.00000
   32    -47.34401    2.00000
   33    -47.33425    2.00000
   34    -47.32081    2.00000
   35    -47.31944    2.00000
   36    -47.31108    2.00000
   37    -47.30694    2.00000
   38    -47.29251    2.00000
   39    -47.28794    2.00000
   40    -47.28537    2.00000
   41    -47.27403    2.00000
   42    -47.25986    2.00000
   43    -47.24921    2.00000
   44    -47.24559    2.00000
   45    -47.23976    2.00000
   46    -47.20186    2.00000
   47    -47.18073    2.00000
   48    -47.17276    2.00000
   49    -47.16438    2.00000
   50    -47.14990    2.00000
   51    -47.14272    2.00000
   52    -47.13925    2.00000
   53    -47.12523    2.00000
   54    -47.11839    2.00000
   55    -47.11408    2.00000
   56    -47.10494    2.00000
   57    -47.10413    2.00000
   58    -47.09139    2.00000
   59    -47.08850    2.00000
   60    -47.08355    2.00000
   61    -47.08081    2.00000
   62    -47.07437    2.00000
   63    -47.07317    2.00000
   64    -47.05743    2.00000
   65    -47.05246    2.00000
   66    -47.04833    2.00000
   67    -47.04271    2.00000
   68    -47.03866    2.00000
   69    -47.03599    2.00000
   70    -47.01903    2.00000
   71    -47.01662    2.00000
   72    -47.00894    2.00000
   73    -47.00584    2.00000
   74    -46.99433    2.00000
   75    -46.98576    2.00000
   76    -46.97721    2.00000
   77    -46.93060    2.00000
   78    -46.92761    2.00000
   79    -46.90453    2.00000
   80    -46.86827    2.00000
   81    -25.96481    2.00000
   82    -11.59379    2.00000
   83     -8.72131    2.00000
   84     -8.68946    2.00000
   85     -8.11343    2.00000
   86     -6.95953    2.00000
   87     -6.67693    2.00000
   88     -6.64862    2.00000
   89     -6.64417    2.00000
   90     -6.63881    2.00000
   91     -6.63018    2.00000
   92     -6.61794    2.00000
   93     -6.46145    2.00000
   94     -6.34751    2.00000
   95     -6.33669    2.00000
   96     -6.32521    2.00000
   97     -6.29572    2.00000
   98     -6.28634    2.00000
   99     -6.26414    2.00000
  100     -6.19926    2.00000
  101     -6.19311    2.00000
  102     -6.17153    2.00000
  103     -6.15625    2.00000
  104     -6.14032    2.00000
  105     -6.12620    2.00000
  106     -5.95827    2.00000
  107     -5.93595    2.00000
  108     -5.92458    2.00000
  109     -5.90786    2.00000
  110     -5.75645    2.00000
  111     -5.73619    2.00000
  112     -5.71010    2.00000
  113     -5.39269    2.00000
  114     -5.37499    2.00000
  115     -5.36533    2.00000
  116     -5.32913    2.00000
  117     -5.30100    2.00000
  118     -5.26900    2.00000
  119     -4.98695    2.00000
  120     -4.97934    2.00000
  121     -4.96184    2.00000
  122     -4.95982    2.00000
  123     -4.52374    2.00000
  124     -4.51258    2.00000
  125     -4.48896    2.00000
  126     -4.46611    2.00000
  127     -4.44441    2.00000
  128     -4.44071    2.00000
  129     -4.15970    2.00000
  130     -4.15759    2.00000
  131     -4.04442    2.00000
  132     -4.00792    2.00000
  133     -3.98138    2.00000
  134     -3.97507    2.00000
  135     -3.96713    2.00000
  136     -3.94834    2.00000
  137     -3.91133    2.00000
  138     -3.89768    2.00000
  139     -3.79938    2.00000
  140     -3.78174    2.00000
  141     -3.77599    2.00000
  142     -3.76615    2.00000
  143     -3.74522    2.00000
  144     -3.72542    2.00000
  145     -3.68942    2.00000
  146     -3.63919    2.00000
  147     -3.47475    2.00000
  148     -3.37815    2.00000
  149     -3.36219    2.00000
  150     -3.31612    2.00000
  151     -3.31188    2.00000
  152     -3.30423    2.00000
  153     -3.28976    2.00000
  154     -3.27874    2.00000
  155     -3.26630    2.00000
  156     -3.26017    2.00000
  157     -3.24564    2.00000
  158     -3.24048    2.00000
  159     -3.22907    2.00000
  160     -3.20112    2.00000
  161     -3.19319    2.00000
  162     -3.16576    2.00000
  163     -3.13937    2.00000
  164     -3.11254    2.00000
  165     -2.47838    2.00000
  166     -2.45614    2.00000
  167     -2.43496    2.00000
  168     -2.43127    2.00000
  169     -2.42675    2.00000
  170     -2.34203    2.00000
  171     -2.26898    2.00000
  172     -2.25993    2.00000
  173     -2.25429    2.00000
  174     -2.24391    2.00000
  175     -2.23584    2.00000
  176     -2.20619    1.99999
  177     -1.96109    1.99993
  178     -1.95059    1.99992
  179     -1.92332    1.99990
  180     -1.91735    1.99989
  181     -1.90405    1.99988
  182     -1.88486    1.99985
  183     -1.83025    1.99975
  184     -1.82007    1.99972
  185     -1.68739    1.99895
  186     -1.67976    1.99887
  187     -1.66498    1.99869
  188     -1.66053    1.99863
  189     -1.41031    1.98338
  190     -1.40824    1.98303
  191     -1.37404    1.97620
  192     -1.32934    1.96303
  193     -1.30415    1.95269
  194     -1.29902    1.95026
  195     -1.28063    1.94052
  196     -1.27627    1.93794
  197     -1.17263    1.83441
  198     -1.13826    1.77416
  199     -1.13300    1.76341
  200     -1.12004    1.73501
  201     -1.10528    1.69921
  202     -1.09401    1.66924
  203     -1.05134    1.53422
  204     -1.01626    1.39744
  205     -0.98881    1.27605
  206     -0.97208    1.19711
  207     -0.95021    1.09015
  208     -0.93687    1.02366
  209     -0.91115    0.89548
  210     -0.77578    0.34627
  211     -0.77187    0.33522
  212     -0.76111    0.30627
  213     -0.74813    0.27409
  214     -0.73836    0.25180
  215     -0.73116    0.23637
  216     -0.70064    0.17978
  217     -0.69041    0.16373
  218     -0.68274    0.15257
  219     -0.67388    0.14054
  220     -0.46482    0.01851
  221     -0.46328    0.01823
  222     -0.23738    0.00192
  223     -0.22734    0.00174
  224     -0.06225    0.00033
  225     -0.04820    0.00029
  226     -0.03873    0.00026
  227     -0.03661    0.00026
  228     -0.02739    0.00024
  229     -0.01144    0.00020
  230     -0.00471    0.00019
  231     -0.00240    0.00018
  232      0.01354    0.00016
  233      0.01848    0.00015
  234      0.03277    0.00013
  235      0.22180    0.00002
  236      0.68960    0.00000
  237      1.22794    0.00000
  238      1.23814    0.00000
  239      2.96274    0.00000
  240      2.98499    0.00000
  241      3.04930    0.00000
  242      3.07552    0.00000
  243      3.08236    0.00000
  244      3.40695    0.00000
  245      3.61675    0.00000
  246      3.85705    0.00000
  247      4.18775    0.00000
  248      4.76249    0.00000
  249      5.24241    0.00000
  250      5.45452    0.00000
  251      5.46099    0.00000
  252      5.54136    0.00000

Fermi level: -0.93213

Gap: 0.026 eV
Transition (v -> c):
  (s=0, k=0, n=208, [0.00, 0.00, 0.00]) -> (s=0, k=0, n=209, [0.00, 0.00, 0.00])

Forces in eV/Ang:
  0 Rh    0.15638   -0.03402   -0.64434
  1 Rh   -0.12307   -0.00930   -0.84721
  2 Rh    0.11084   -0.11489   -0.77577
  3 Rh    0.29276   -0.08409   -0.62909
  4 Rh   -0.07151    0.04591   -0.76810
  5 Rh   -0.28997   -0.03889   -0.63410
  6 Rh   -0.31975    0.01909   -0.61403
  7 Rh    0.32161    0.10370   -0.59049
  8 Rh   -0.04141    0.09626   -0.60696
  9 Rh    0.34418    0.33464    0.49458
 10 Rh   -0.26059    0.18227    0.08914
 11 Rh    0.03794    0.00604   -0.49878
 12 Rh   -0.07500   -0.16559    0.56783
 13 Rh   -0.17899    0.13733    0.23680
 14 Rh    0.36303    0.07491    0.35605
 15 Rh    0.02597   -0.18562    0.11552
 16 Rh   -0.11045   -0.07872    0.15919
 17 Rh    0.03155   -0.16396   -0.15055
 18 Rh    0.15252    0.04368    0.56762
 19 Rh   -0.20831   -0.00096    0.60352
 20 Rh    0.06615   -0.21470    0.59620
 21 Rh    0.02082    0.01492    0.71444
 22 Rh   -0.26928    0.19251    0.57798
 23 Rh    0.31929    0.16093    0.67891
 24 Rh   -0.12714   -0.16467    0.66358
 25 Rh    0.02079    0.07742    0.49548
 26 Rh    0.04955   -0.12654    0.72044
 27 O    -0.26646   -0.08360   -0.32178
 28 C     0.09196    0.02559   -0.28218

System changes: positions 

Initializing position-dependent things.

Density initialized from wave functions
                                           
                                           
                                           
                                           
                                           
                Rh     Rh     Rh           
            Rh   RRh    RRh    Rh          
       Rh     Rh    Rh                     
             Rh    Rh     Rh               
        Rh     Rh   RRh    Rh    Rh        
                      Rh                   
                Rh           Rh            
           Rh    Rh     Rh                 
                                           
                    O                      
                                           
                    C                      
                                           
                                           
                                           
                                           

Positions:
   0 Rh     1.336867    0.775882   12.139034    ( 0.0000,  0.0000,  0.0000)
   1 Rh     4.036079    0.785435   12.154771    ( 0.0000,  0.0000,  0.0000)
   2 Rh     6.833445    0.779818   12.176267    ( 0.0000,  0.0000,  0.0000)
   3 Rh     2.701217    3.144691   12.153591    ( 0.0000,  0.0000,  0.0000)
   4 Rh     5.430554    3.176309   12.172896    ( 0.0000,  0.0000,  0.0000)
   5 Rh     8.127737    3.131929   12.138697    ( 0.0000,  0.0000,  0.0000)
   6 Rh     4.054922    5.468150   12.122270    ( 0.0000,  0.0000,  0.0000)
   7 Rh     6.760978    5.457964   12.138313    ( 0.0000,  0.0000,  0.0000)
   8 Rh     9.489305    5.438443   12.163996    ( 0.0000,  0.0000,  0.0000)
   9 Rh     0.006615    1.565636   14.213003    ( 0.0000,  0.0000,  0.0000)
  10 Rh     2.715658    1.553719   14.205099    ( 0.0000,  0.0000,  0.0000)
  11 Rh     5.416070    1.562811   14.232782    ( 0.0000,  0.0000,  0.0000)
  12 Rh     1.347304    3.900086   14.207777    ( 0.0000,  0.0000,  0.0000)
  13 Rh     4.060137    3.911502   14.218433    ( 0.0000,  0.0000,  0.0000)
  14 Rh     6.774690    3.912752   14.215217    ( 0.0000,  0.0000,  0.0000)
  15 Rh     2.709199    6.253868   14.223675    ( 0.0000,  0.0000,  0.0000)
  16 Rh     5.419016    6.257066   14.214117    ( 0.0000,  0.0000,  0.0000)
  17 Rh     8.121965    6.261571   14.224025    ( 0.0000,  0.0000,  0.0000)
  18 Rh    -0.001913    0.001613   16.285489    ( 0.0000,  0.0000,  0.0000)
  19 Rh     2.707786    0.001261   16.282083    ( 0.0000,  0.0000,  0.0000)
  20 Rh     5.417548   -0.001600   16.280408    ( 0.0000,  0.0000,  0.0000)
  21 Rh     1.352341    2.350017   16.292328    ( 0.0000,  0.0000,  0.0000)
  22 Rh     4.060322    2.347562   16.278939    ( 0.0000,  0.0000,  0.0000)
  23 Rh     6.772169    2.345214   16.274851    ( 0.0000,  0.0000,  0.0000)
  24 Rh     2.705061    4.688168   16.283030    ( 0.0000,  0.0000,  0.0000)
  25 Rh     5.417045    4.687670   16.288522    ( 0.0000,  0.0000,  0.0000)
  26 Rh     8.127807    4.688143   16.284849    ( 0.0000,  0.0000,  0.0000)
  27 O      4.962447    0.988599    9.992794    ( 0.0000,  0.0000,  0.0000)
  28 C      5.011469    1.002851    8.852501    ( 0.0000,  0.0000,  0.0000)

Unit cell:
           periodic     x           y           z      points  spacing
  1. axis:    yes    8.124657    0.000000    0.000000    36     0.1954
  2. axis:    yes    4.062328    7.036159    0.000000    36     0.1954
  3. axis:    yes    0.000000    0.000000   28.422503   144     0.1974

  Lengths:   8.124657   8.124657  28.422503
  Angles:   90.000000  90.000000  60.000000

Effective grid spacing dv^(1/3) = 0.2057

     iter     time        total  log10-change:
                         energy  eigst   dens
iter:   1 09:05:08  -202.288638  -0.39
iter:   2 09:05:12  -204.181253  -0.85  -1.42
iter:   3 09:05:15  -196.159395  -1.05  -1.34
iter:   4 09:05:19  -185.867011  -1.73  -1.46
iter:   5 09:05:23  -183.923594  -2.73  -1.79
iter:   6 09:05:26  -183.400101  -2.82  -1.99
iter:   7 09:05:30  -183.228087  -2.63  -2.14
iter:   8 09:05:33  -183.036920  -2.72  -2.19
iter:   9 09:05:37  -183.000673  -3.22  -2.45
iter:  10 09:05:40  -182.983976c -3.57  -2.56
iter:  11 09:05:44  -182.980523c -3.53  -2.64
iter:  12 09:05:48  -182.954173c -3.59  -2.64
iter:  13 09:05:51  -182.953963c -4.18  -3.02
iter:  14 09:05:55  -182.954104c -4.56  -3.11
iter:  15 09:05:58  -182.955171c -4.61  -3.14
iter:  16 09:06:02  -182.956180c -4.44  -3.21
iter:  17 09:06:05  -182.959540c -4.59  -3.27
iter:  18 09:06:09  -182.956580c -4.88  -3.15
iter:  19 09:06:13  -182.955429c -5.10  -3.42
iter:  20 09:06:16  -182.954961c -5.13  -3.67
iter:  21 09:06:20  -182.954989c -5.69  -3.83
iter:  22 09:06:23  -182.955035c -5.80  -3.97
iter:  23 09:06:27  -182.955460c -5.93  -4.06c
iter:  24 09:06:30  -182.955276c -6.27  -3.85
iter:  25 09:06:34  -182.955312c -6.42  -4.03c
iter:  26 09:06:37  -182.955358c -6.68  -4.35c
iter:  27 09:06:41  -182.955367c -6.71  -4.39c
iter:  28 09:06:45  -182.955414c -6.69  -4.46c
iter:  29 09:06:48  -182.955435c -7.03  -4.55c
iter:  30 09:06:52  -182.955392c -7.46c -4.50c

Converged after 30 iterations.

Dipole moment: (-3.397947, -3.019933, -0.094185) |e|*Ang

Energy contributions relative to reference atoms: (reference = -3516703.949422)

Kinetic:        +31.934497
Potential:      -82.541484
External:        +0.000000
XC:            -130.956133
Entropy (-ST):   -2.407233
Local:           -0.188656
--------------------------
Free energy:   -184.159008
Extrapolated:  -182.955392

 Band  Eigenvalues  Occupancy
    0    -48.11209    2.00000
    1    -48.04125    2.00000
    2    -48.03581    2.00000
    3    -48.03141    2.00000
    4    -48.01484    2.00000
    5    -48.01085    2.00000
    6    -48.00242    2.00000
    7    -47.97201    2.00000
    8    -47.96595    2.00000
    9    -47.82447    2.00000
   10    -47.82175    2.00000
   11    -47.81133    2.00000
   12    -47.80691    2.00000
   13    -47.80358    2.00000
   14    -47.80095    2.00000
   15    -47.78055    2.00000
   16    -47.77864    2.00000
   17    -47.77426    2.00000
   18    -47.77256    2.00000
   19    -47.49593    2.00000
   20    -47.48502    2.00000
   21    -47.48422    2.00000
   22    -47.47829    2.00000
   23    -47.47638    2.00000
   24    -47.47434    2.00000
   25    -47.38638    2.00000
   26    -47.37825    2.00000
   27    -47.37651    2.00000
   28    -47.37395    2.00000
   29    -47.36500    2.00000
   30    -47.35494    2.00000
   31    -47.34531    2.00000
   32    -47.32743    2.00000
   33    -47.31895    2.00000
   34    -47.31171    2.00000
   35    -47.30745    2.00000
   36    -47.30692    2.00000
   37    -47.30011    2.00000
   38    -47.29972    2.00000
   39    -47.28993    2.00000
   40    -47.28972    2.00000
   41    -47.28181    2.00000
   42    -47.26083    2.00000
   43    -47.25863    2.00000
   44    -47.24345    2.00000
   45    -47.21890    2.00000
   46    -47.19457    2.00000
   47    -47.18309    2.00000
   48    -47.12176    2.00000
   49    -47.11723    2.00000
   50    -47.11061    2.00000
   51    -47.10096    2.00000
   52    -47.09355    2.00000
   53    -47.08994    2.00000
   54    -47.08049    2.00000
   55    -47.07496    2.00000
   56    -47.07012    2.00000
   57    -47.06673    2.00000
   58    -47.06298    2.00000
   59    -47.06240    2.00000
   60    -47.05572    2.00000
   61    -47.05467    2.00000
   62    -47.04844    2.00000
   63    -47.04232    2.00000
   64    -47.04072    2.00000
   65    -47.03754    2.00000
   66    -47.03471    2.00000
   67    -47.03443    2.00000
   68    -47.03269    2.00000
   69    -47.03104    2.00000
   70    -47.02275    2.00000
   71    -47.02061    2.00000
   72    -47.01568    2.00000
   73    -47.01190    2.00000
   74    -47.00535    2.00000
   75    -46.99021    2.00000
   76    -46.98369    2.00000
   77    -46.93808    2.00000
   78    -46.93668    2.00000
   79    -46.92304    2.00000
   80    -46.90683    2.00000
   81    -26.05896    2.00000
   82    -11.82578    2.00000
   83     -8.84870    2.00000
   84     -8.80487    2.00000
   85     -7.99640    2.00000
   86     -6.77268    2.00000
   87     -6.46882    2.00000
   88     -6.45233    2.00000
   89     -6.44824    2.00000
   90     -6.44698    2.00000
   91     -6.44228    2.00000
   92     -6.43003    2.00000
   93     -6.41530    2.00000
   94     -6.19177    2.00000
   95     -6.18516    2.00000
   96     -6.17718    2.00000
   97     -6.16151    2.00000
   98     -6.15271    2.00000
   99     -6.13881    2.00000
  100     -6.01040    2.00000
  101     -6.00260    2.00000
  102     -5.99448    2.00000
  103     -5.97901    2.00000
  104     -5.97360    2.00000
  105     -5.96914    2.00000
  106     -5.78025    2.00000
  107     -5.73388    2.00000
  108     -5.72621    2.00000
  109     -5.71184    2.00000
  110     -5.70279    2.00000
  111     -5.57053    2.00000
  112     -5.54508    2.00000
  113     -5.32872    2.00000
  114     -5.31377    2.00000
  115     -5.31131    2.00000
  116     -5.28382    2.00000
  117     -5.26322    2.00000
  118     -5.24129    2.00000
  119     -4.80293    2.00000
  120     -4.80062    2.00000
  121     -4.78890    2.00000
  122     -4.78372    2.00000
  123     -4.40100    2.00000
  124     -4.39366    2.00000
  125     -4.37484    2.00000
  126     -4.36101    2.00000
  127     -4.34896    2.00000
  128     -4.33064    2.00000
  129     -3.95757    2.00000
  130     -3.95704    2.00000
  131     -3.79451    2.00000
  132     -3.79216    2.00000
  133     -3.78064    2.00000
  134     -3.77198    2.00000
  135     -3.76032    2.00000
  136     -3.74777    2.00000
  137     -3.74408    2.00000
  138     -3.73880    2.00000
  139     -3.72628    2.00000
  140     -3.71225    2.00000
  141     -3.70327    2.00000
  142     -3.69617    2.00000
  143     -3.69216    2.00000
  144     -3.68656    2.00000
  145     -3.66673    2.00000
  146     -3.63468    2.00000
  147     -3.58182    2.00000
  148     -3.32653    2.00000
  149     -3.31758    2.00000
  150     -3.29539    2.00000
  151     -3.28396    2.00000
  152     -3.28113    2.00000
  153     -3.26779    2.00000
  154     -3.25745    2.00000
  155     -3.25145    2.00000
  156     -3.24478    2.00000
  157     -3.22182    2.00000
  158     -3.21350    2.00000
  159     -3.20555    2.00000
  160     -3.20188    2.00000
  161     -3.19671    2.00000
  162     -3.18383    2.00000
  163     -3.17302    2.00000
  164     -3.11871    2.00000
  165     -2.44614    2.00000
  166     -2.43106    2.00000
  167     -2.41860    2.00000
  168     -2.41548    2.00000
  169     -2.40819    2.00000
  170     -2.29361    2.00000
  171     -2.12676    1.99999
  172     -2.12565    1.99999
  173     -2.12244    1.99999
  174     -2.11428    1.99998
  175     -2.10867    1.99998
  176     -2.09371    1.99998
  177     -1.92185    1.99990
  178     -1.91319    1.99989
  179     -1.90047    1.99987
  180     -1.88643    1.99985
  181     -1.87992    1.99984
  182     -1.86402    1.99981
  183     -1.82593    1.99973
  184     -1.82162    1.99972
  185     -1.75605    1.99945
  186     -1.75330    1.99944
  187     -1.73851    1.99935
  188     -1.73511    1.99932
  189     -1.34047    1.96559
  190     -1.33861    1.96496
  191     -1.29430    1.94595
  192     -1.26739    1.92984
  193     -1.24767    1.91520
  194     -1.24188    1.91037
  195     -1.23038    1.89999
  196     -1.22874    1.89842
  197     -1.19180    1.85629
  198     -1.16618    1.81814
  199     -1.16535    1.81677
  200     -1.15418    1.79731
  201     -1.14356    1.77712
  202     -1.13112    1.75127
  203     -1.01787    1.38813
  204     -1.00299    1.32319
  205     -0.97930    1.21343
  206     -0.95649    1.10235
  207     -0.93597    1.00014
  208     -0.92734    0.95699
  209     -0.90696    0.85608
  210     -0.80860    0.43732
  211     -0.80119    0.41255
  212     -0.79182    0.38270
  213     -0.77837    0.34279
  214     -0.74645    0.26137
  215     -0.74025    0.24760
  216     -0.72169    0.21005
  217     -0.71356    0.19525
  218     -0.70480    0.18036
  219     -0.70319    0.17773
  220     -0.50722    0.02711
  221     -0.50467    0.02644
  222     -0.32780    0.00456
  223     -0.32027    0.00423
  224     -0.17105    0.00095
  225     -0.15792    0.00084
  226     -0.15527    0.00081
  227     -0.14664    0.00075
  228     -0.13549    0.00067
  229     -0.12150    0.00058
  230     -0.09102    0.00043
  231     -0.07850    0.00038
  232     -0.07360    0.00036
  233     -0.05535    0.00030
  234     -0.04893    0.00028
  235      0.15541    0.00004
  236      0.60124    0.00000
  237      1.17239    0.00000
  238      1.18318    0.00000
  239      2.86958    0.00000
  240      2.88833    0.00000
  241      2.93725    0.00000
  242      2.95834    0.00000
  243      2.97181    0.00000
  244      3.34980    0.00000
  245      3.59859    0.00000
  246      3.84817    0.00000
  247      4.18403    0.00000
  248      4.76467    0.00000
  249      5.25343    0.00000
  250      5.38164    0.00000
  251      5.38839    0.00000
  252      5.46679    0.00000

Fermi level: -0.93595

Gap: 0.009 eV
Transition (v -> c):
  (s=0, k=0, n=207, [0.00, 0.00, 0.00]) -> (s=0, k=0, n=208, [0.00, 0.00, 0.00])

Forces in eV/Ang:
  0 Rh   -0.00556   -0.03306   -0.00672
  1 Rh   -0.22582    0.01958   -0.02157
  2 Rh    0.49301   -0.06506    0.14912
  3 Rh    0.21007    0.01101    0.11801
  4 Rh    0.03265    0.24989    0.12937
  5 Rh   -0.23490   -0.00585   -0.00074
  6 Rh   -0.29425   -0.00904   -0.13667
  7 Rh    0.20862   -0.02425    0.01058
  8 Rh    0.00786   -0.08726    0.16513
  9 Rh    0.16378    0.14542    0.18906
 10 Rh   -0.06091    0.02353   -0.04718
 11 Rh    0.01967    0.00064   -0.10694
 12 Rh   -0.06081   -0.10950    0.20603
 13 Rh   -0.07378    0.08374    0.13005
 14 Rh    0.15387    0.04489    0.15071
 15 Rh    0.02153   -0.08292    0.10485
 16 Rh   -0.05383   -0.04083    0.07047
 17 Rh    0.00633   -0.01998   -0.01214
 18 Rh    0.05961    0.03492   -0.01392
 19 Rh   -0.09680    0.00535   -0.04775
 20 Rh    0.03893   -0.11020   -0.08704
 21 Rh    0.02100    0.01021    0.16896
 22 Rh   -0.13658    0.10417   -0.09697
 23 Rh    0.15138    0.06951   -0.08665
 24 Rh   -0.07262   -0.08665    0.03156
 25 Rh    0.01569    0.01776   -0.02393
 26 Rh    0.03375   -0.04642    0.07343
 27 O    -0.30352   -0.10127   -0.33094
 28 C     0.10720    0.03911   -0.41544

System changes: positions 

Initializing position-dependent things.

Density initialized from wave functions
                                           
                                           
                                           
                                           
                                           
                Rh     Rh     Rh           
            Rh   RRh    RRh    Rh          
       Rh     Rh    Rh                     
             Rh    Rh     Rh               
        Rh     Rh   RRh    Rh    Rh        
                Rh    Rh                   
                             Rh            
           Rh    Rh     Rh                 
                                           
                    O                      
                                           
                    C                      
                                           
                                           
                                           
                                           

Positions:
   0 Rh     1.335894    0.775098   12.143911    ( 0.0000,  0.0000,  0.0000)
   1 Rh     4.031601    0.785887   12.160251    ( 0.0000,  0.0000,  0.0000)
   2 Rh     6.843441    0.778803   12.185205    ( 0.0000,  0.0000,  0.0000)
   3 Rh     2.703667    3.145793   12.160911    ( 0.0000,  0.0000,  0.0000)
   4 Rh     5.431745    3.182368   12.181396    ( 0.0000,  0.0000,  0.0000)
   5 Rh     8.124745    3.132106   12.143636    ( 0.0000,  0.0000,  0.0000)
   6 Rh     4.050548    5.467791   12.124535    ( 0.0000,  0.0000,  0.0000)
   7 Rh     6.763279    5.456872   12.143400    ( 0.0000,  0.0000,  0.0000)
   8 Rh     9.489989    5.435414   12.172533    ( 0.0000,  0.0000,  0.0000)
   9 Rh     0.009293    1.567805   14.215812    ( 0.0000,  0.0000,  0.0000)
  10 Rh     2.715158    1.553555   14.204199    ( 0.0000,  0.0000,  0.0000)
  11 Rh     5.416321    1.562777   14.232372    ( 0.0000,  0.0000,  0.0000)
  12 Rh     1.346091    3.898076   14.210542    ( 0.0000,  0.0000,  0.0000)
  13 Rh     4.058965    3.912797   14.220650    ( 0.0000,  0.0000,  0.0000)
  14 Rh     6.777106    3.913589   14.217583    ( 0.0000,  0.0000,  0.0000)
  15 Rh     2.709546    6.252673   14.225803    ( 0.0000,  0.0000,  0.0000)
  16 Rh     5.418413    6.256655   14.215277    ( 0.0000,  0.0000,  0.0000)
  17 Rh     8.121908    6.261639   14.224525    ( 0.0000,  0.0000,  0.0000)
  18 Rh    -0.001172    0.002178   16.280425    ( 0.0000,  0.0000,  0.0000)
  19 Rh     2.706402    0.001402   16.276412    ( 0.0000,  0.0000,  0.0000)
  20 Rh     5.418149   -0.003227   16.274134    ( 0.0000,  0.0000,  0.0000)
  21 Rh     1.352519    2.350422   16.290083    ( 0.0000,  0.0000,  0.0000)
  22 Rh     4.058303    2.349132   16.272442    ( 0.0000,  0.0000,  0.0000)
  23 Rh     6.774384    2.346186   16.268309    ( 0.0000,  0.0000,  0.0000)
  24 Rh     2.703877    4.686815   16.278462    ( 0.0000,  0.0000,  0.0000)
  25 Rh     5.417293    4.687764   16.283464    ( 0.0000,  0.0000,  0.0000)
  26 Rh     8.128448    4.687325   16.280955    ( 0.0000,  0.0000,  0.0000)
  27 O      4.956252    0.986599    9.983039    ( 0.0000,  0.0000,  0.0000)
  28 C      5.013553    1.003530    8.843431    ( 0.0000,  0.0000,  0.0000)

Unit cell:
           periodic     x           y           z      points  spacing
  1. axis:    yes    8.124657    0.000000    0.000000    36     0.1954
  2. axis:    yes    4.062328    7.036159    0.000000    36     0.1954
  3. axis:    yes    0.000000    0.000000   28.422503   144     0.1974

  Lengths:   8.124657   8.124657  28.422503
  Angles:   90.000000  90.000000  60.000000

Effective grid spacing dv^(1/3) = 0.2057

     iter     time        total  log10-change:
                         energy  eigst   dens
iter:   1 09:07:06  -183.912470  -2.12
iter:   2 09:07:10  -201.884502  -1.54  -1.95
iter:   3 09:07:14  -183.016770  -1.97  -1.35
iter:   4 09:07:17  -183.012687  -2.78  -2.82
iter:   5 09:07:21  -183.006058c -3.67  -2.86
iter:   6 09:07:24  -183.003645c -3.98  -2.99
iter:   7 09:07:28  -182.999720c -4.39  -3.05
iter:   8 09:07:32  -182.998145c -4.82  -3.23
iter:   9 09:07:35  -182.998232c -5.25  -3.43
iter:  10 09:07:39  -182.999192c -5.43  -3.46
iter:  11 09:07:42  -182.998755c -5.39  -3.53
iter:  12 09:07:46  -182.999112c -5.72  -3.72
iter:  13 09:07:50  -182.998940c -6.27  -3.87
iter:  14 09:07:53  -182.999025c -6.38  -3.86
iter:  15 09:07:57  -182.998637c -6.15  -3.90
iter:  16 09:08:00  -182.998727c -6.49  -4.12c
iter:  17 09:08:04  -182.998549c -6.80  -4.07c
iter:  18 09:08:08  -182.998565c -6.97  -4.30c
iter:  19 09:08:11  -182.998514c -6.78  -4.32c
iter:  20 09:08:15  -182.998513c -7.20  -4.48c
iter:  21 09:08:18  -182.998491c -7.45c -4.45c

Converged after 21 iterations.

Dipole moment: (-3.392234, -3.035715, -0.093419) |e|*Ang

Energy contributions relative to reference atoms: (reference = -3516703.949422)

Kinetic:        +37.301104
Potential:      -87.107244
External:        +0.000000
XC:            -131.814495
Entropy (-ST):   -2.381303
Local:           -0.187205
--------------------------
Free energy:   -184.189142
Extrapolated:  -182.998491

 Band  Eigenvalues  Occupancy
    0    -48.12919    2.00000
    1    -48.05958    2.00000
    2    -48.05269    2.00000
    3    -48.04795    2.00000
    4    -48.03095    2.00000
    5    -48.02661    2.00000
    6    -48.01165    2.00000
    7    -47.98764    2.00000
    8    -47.97653    2.00000
    9    -47.83764    2.00000
   10    -47.83495    2.00000
   11    -47.82109    2.00000
   12    -47.81839    2.00000
   13    -47.81366    2.00000
   14    -47.80826    2.00000
   15    -47.79136    2.00000
   16    -47.78917    2.00000
   17    -47.78346    2.00000
   18    -47.77947    2.00000
   19    -47.50637    2.00000
   20    -47.49528    2.00000
   21    -47.49398    2.00000
   22    -47.48644    2.00000
   23    -47.48277    2.00000
   24    -47.48231    2.00000
   25    -47.39846    2.00000
   26    -47.38653    2.00000
   27    -47.38469    2.00000
   28    -47.38196    2.00000
   29    -47.37354    2.00000
   30    -47.36152    2.00000
   31    -47.35155    2.00000
   32    -47.32874    2.00000
   33    -47.32338    2.00000
   34    -47.31534    2.00000
   35    -47.31252    2.00000
   36    -47.30707    2.00000
   37    -47.30504    2.00000
   38    -47.30049    2.00000
   39    -47.29356    2.00000
   40    -47.29153    2.00000
   41    -47.28475    2.00000
   42    -47.26387    2.00000
   43    -47.26114    2.00000
   44    -47.24767    2.00000
   45    -47.21790    2.00000
   46    -47.19772    2.00000
   47    -47.18399    2.00000
   48    -47.12759    2.00000
   49    -47.12160    2.00000
   50    -47.11730    2.00000
   51    -47.10746    2.00000
   52    -47.10099    2.00000
   53    -47.09733    2.00000
   54    -47.08586    2.00000
   55    -47.08114    2.00000
   56    -47.07734    2.00000
   57    -47.07335    2.00000
   58    -47.06964    2.00000
   59    -47.06860    2.00000
   60    -47.06161    2.00000
   61    -47.06082    2.00000
   62    -47.05457    2.00000
   63    -47.04638    2.00000
   64    -47.04598    2.00000
   65    -47.04379    2.00000
   66    -47.03927    2.00000
   67    -47.03772    2.00000
   68    -47.03633    2.00000
   69    -47.03454    2.00000
   70    -47.02513    2.00000
   71    -47.02361    2.00000
   72    -47.01841    2.00000
   73    -47.01441    2.00000
   74    -47.01203    2.00000
   75    -46.99142    2.00000
   76    -46.98597    2.00000
   77    -46.94070    2.00000
   78    -46.93939    2.00000
   79    -46.92479    2.00000
   80    -46.90487    2.00000
   81    -26.04440    2.00000
   82    -11.78420    2.00000
   83     -8.82531    2.00000
   84     -8.78439    2.00000
   85     -8.01106    2.00000
   86     -6.79380    2.00000
   87     -6.49490    2.00000
   88     -6.47542    2.00000
   89     -6.46950    2.00000
   90     -6.46802    2.00000
   91     -6.46248    2.00000
   92     -6.44714    2.00000
   93     -6.42261    2.00000
   94     -6.21309    2.00000
   95     -6.20519    2.00000
   96     -6.19378    2.00000
   97     -6.17971    2.00000
   98     -6.16884    2.00000
   99     -6.15078    2.00000
  100     -6.03614    2.00000
  101     -6.02345    2.00000
  102     -6.01891    2.00000
  103     -5.99698    2.00000
  104     -5.99034    2.00000
  105     -5.98522    2.00000
  106     -5.78782    2.00000
  107     -5.75809    2.00000
  108     -5.74656    2.00000
  109     -5.73440    2.00000
  110     -5.71732    2.00000
  111     -5.59706    2.00000
  112     -5.56140    2.00000
  113     -5.34212    2.00000
  114     -5.32437    2.00000
  115     -5.32191    2.00000
  116     -5.29024    2.00000
  117     -5.26852    2.00000
  118     -5.24113    2.00000
  119     -4.82517    2.00000
  120     -4.82194    2.00000
  121     -4.80841    2.00000
  122     -4.80169    2.00000
  123     -4.41970    2.00000
  124     -4.40975    2.00000
  125     -4.38921    2.00000
  126     -4.37448    2.00000
  127     -4.35841    2.00000
  128     -4.34276    2.00000
  129     -3.97851    2.00000
  130     -3.97843    2.00000
  131     -3.81548    2.00000
  132     -3.80513    2.00000
  133     -3.78884    2.00000
  134     -3.78002    2.00000
  135     -3.77621    2.00000
  136     -3.76635    2.00000
  137     -3.75115    2.00000
  138     -3.74937    2.00000
  139     -3.74771    2.00000
  140     -3.73495    2.00000
  141     -3.72514    2.00000
  142     -3.71800    2.00000
  143     -3.71321    2.00000
  144     -3.70781    2.00000
  145     -3.67851    2.00000
  146     -3.63679    2.00000
  147     -3.57404    2.00000
  148     -3.33865    2.00000
  149     -3.32078    2.00000
  150     -3.29846    2.00000
  151     -3.29068    2.00000
  152     -3.28673    2.00000
  153     -3.27244    2.00000
  154     -3.26101    2.00000
  155     -3.25543    2.00000
  156     -3.24774    2.00000
  157     -3.22716    2.00000
  158     -3.21987    2.00000
  159     -3.21152    2.00000
  160     -3.20659    2.00000
  161     -3.19822    2.00000
  162     -3.18627    2.00000
  163     -3.17243    2.00000
  164     -3.12168    2.00000
  165     -2.45437    2.00000
  166     -2.43558    2.00000
  167     -2.42476    2.00000
  168     -2.42047    2.00000
  169     -2.41032    2.00000
  170     -2.30191    2.00000
  171     -2.14472    1.99999
  172     -2.14161    1.99999
  173     -2.13729    1.99999
  174     -2.12791    1.99999
  175     -2.12286    1.99999
  176     -2.10835    1.99998
  177     -1.93369    1.99991
  178     -1.92095    1.99989
  179     -1.90777    1.99988
  180     -1.89276    1.99986
  181     -1.88204    1.99984
  182     -1.86265    1.99981
  183     -1.82907    1.99973
  184     -1.82478    1.99972
  185     -1.75420    1.99943
  186     -1.74836    1.99940
  187     -1.73126    1.99928
  188     -1.72752    1.99926
  189     -1.35042    1.96826
  190     -1.34866    1.96771
  191     -1.31325    1.95430
  192     -1.27491    1.93365
  193     -1.26060    1.92383
  194     -1.24805    1.91409
  195     -1.23665    1.90421
  196     -1.23297    1.90079
  197     -1.19283    1.85534
  198     -1.16652    1.81581
  199     -1.16324    1.81025
  200     -1.15295    1.79183
  201     -1.14262    1.77176
  202     -1.12638    1.73682
  203     -1.03137    1.43692
  204     -1.00757    1.33587
  205     -0.98535    1.23393
  206     -0.96039    1.11304
  207     -0.93828    1.00299
  208     -0.92902    0.95668
  209     -0.90358    0.83111
  210     -0.80826    0.43027
  211     -0.80129    0.40719
  212     -0.78832    0.36675
  213     -0.77408    0.32600
  214     -0.74951    0.26438
  215     -0.74031    0.24398
  216     -0.72534    0.21368
  217     -0.71062    0.18716
  218     -0.70152    0.17229
  219     -0.69861    0.16776
  220     -0.50541    0.02618
  221     -0.50238    0.02541
  222     -0.32123    0.00420
  223     -0.31267    0.00385
  224     -0.16468    0.00088
  225     -0.14978    0.00076
  226     -0.14666    0.00073
  227     -0.13610    0.00066
  228     -0.12459    0.00059
  229     -0.10891    0.00050
  230     -0.08682    0.00040
  231     -0.07478    0.00036
  232     -0.06750    0.00033
  233     -0.04939    0.00028
  234     -0.04291    0.00026
  235      0.16077    0.00003
  236      0.60404    0.00000
  237      1.18318    0.00000
  238      1.19413    0.00000
  239      2.87458    0.00000
  240      2.89573    0.00000
  241      2.94880    0.00000
  242      2.96920    0.00000
  243      2.97918    0.00000
  244      3.35374    0.00000
  245      3.60016    0.00000
  246      3.84966    0.00000
  247      4.18235    0.00000
  248      4.76801    0.00000
  249      5.24609    0.00000
  250      5.38822    0.00000
  251      5.39441    0.00000
  252      5.47323    0.00000

Fermi level: -0.93768

Gap: 0.009 eV
Transition (v -> c):
  (s=0, k=0, n=207, [0.00, 0.00, 0.00]) -> (s=0, k=0, n=208, [0.00, 0.00, 0.00])

Forces in eV/Ang:
  0 Rh    0.01712   -0.02983   -0.04327
  1 Rh   -0.28861    0.01181   -0.06516
  2 Rh    0.55335   -0.08605    0.07848
  3 Rh    0.27854   -0.00036    0.07326
  4 Rh    0.02048    0.27607    0.06147
  5 Rh   -0.30295   -0.01163   -0.03966
  6 Rh   -0.36807   -0.00704   -0.17778
  7 Rh    0.28703   -0.01617   -0.02466
  8 Rh    0.00001   -0.08141    0.10328
  9 Rh    0.18417    0.15353    0.21680
 10 Rh   -0.06851    0.02605   -0.03663
 11 Rh    0.01872   -0.00469   -0.12582
 12 Rh   -0.06120   -0.12188    0.22283
 13 Rh   -0.06416    0.10168    0.13897
 14 Rh    0.15164    0.05675    0.16592
 15 Rh    0.02770   -0.08386    0.11380
 16 Rh   -0.06516   -0.05787    0.05451
 17 Rh    0.00785   -0.01073   -0.01377
 18 Rh    0.06227    0.04555    0.03390
 19 Rh   -0.10593    0.00633   -0.00127
 20 Rh    0.04556   -0.12753   -0.04543
 21 Rh    0.04012   -0.00769    0.24418
 22 Rh   -0.15346    0.11649   -0.05739
 23 Rh    0.15973    0.07520   -0.03736
 24 Rh   -0.08056   -0.09316    0.09570
 25 Rh    0.02370    0.01322    0.02184
 26 Rh    0.02799   -0.02919    0.13881
 27 O    -0.27598   -0.09986   -0.35595
 28 C     0.10738    0.03233   -0.38241

System changes: positions 

Initializing position-dependent things.

Density initialized from wave functions
                                           
                                           
                                           
                                           
                                           
                Rh     Rh     Rh           
            Rh   RRh    RRh    Rh          
       Rh    RRh   RRh    Rh               
                                           
        Rh     Rh   RRh    Rh    Rh        
                Rh    Rh     Rh            
                                           
           Rh    Rh      Rh                
                                           
                    O                      
                                           
                    C                      
                                           
                                           
                                           
                                           

Positions:
   0 Rh     1.326045    0.763422   12.199874    ( 0.0000,  0.0000,  0.0000)
   1 Rh     3.953804    0.791942   12.221754    ( 0.0000,  0.0000,  0.0000)
   2 Rh     7.007311    0.759408   12.298212    ( 0.0000,  0.0000,  0.0000)
   3 Rh     2.755786    3.158996   12.254655    ( 0.0000,  0.0000,  0.0000)
   4 Rh     5.447353    3.277464   12.287958    ( 0.0000,  0.0000,  0.0000)
   5 Rh     8.064281    3.133275   12.200500    ( 0.0000,  0.0000,  0.0000)
   6 Rh     3.968234    5.462943   12.138935    ( 0.0000,  0.0000,  0.0000)
   7 Rh     6.814578    5.442664   12.203337    ( 0.0000,  0.0000,  0.0000)
   8 Rh     9.498191    5.392526   12.282772    ( 0.0000,  0.0000,  0.0000)
   9 Rh     0.056238    1.605814   14.267110    ( 0.0000,  0.0000,  0.0000)
  10 Rh     2.703708    1.553564   14.191229    ( 0.0000,  0.0000,  0.0000)
[...]
  244      3.00286    0.00000
  245      3.25045    0.00000
  246      3.62398    0.00000
  247      3.91699    0.00000
  248      4.04725    0.00000
  249      4.26775    0.00000
  250      4.40823    0.00000
  251      4.58813    0.00000
  252      4.63475    0.00000

Fermi level: -0.81919

Gap: 0.057 eV
Transition (v -> c):
  (s=0, k=0, n=206, [0.00, 0.00, 0.00]) -> (s=0, k=0, n=207, [0.00, 0.00, 0.00])

Forces in eV/Ang:
  0 Rh    0.03586   -0.02749   -0.13085
  1 Rh    0.17803    0.20848    0.18363
  2 Rh    0.09556   -0.01903   -0.05304
  3 Rh   -0.12247   -0.10118    0.09961
  4 Rh   -0.10376    0.20938    0.08959
  5 Rh    0.02925   -0.12006   -0.10012
  6 Rh   -0.14207    0.04435    0.04731
  7 Rh   -0.12972    0.01756   -0.03452
  8 Rh    0.05793    0.18662   -0.05515
  9 Rh   -0.09816    0.45623   -0.00361
 10 Rh   -0.01858    0.01723    0.18804
 11 Rh    0.19284   -0.03651    0.08964
 12 Rh    0.01597    0.19314   -0.19486
 13 Rh   -0.03638   -0.07654   -0.05435
 14 Rh   -0.02662   -0.12811   -0.14998
 15 Rh   -0.14531   -0.13215    0.00660
 16 Rh    0.02384   -0.09833   -0.16893
 17 Rh    0.02048    0.24665   -0.08728
 18 Rh    0.23088   -0.09349    0.19491
 19 Rh    0.09377    0.31295   -0.17440
 20 Rh    0.08446    0.00268    0.00616
 21 Rh   -0.34022   -0.14481    0.09489
 22 Rh   -0.06735   -0.20352   -0.09834
 23 Rh    0.14825   -0.07433    0.07379
 24 Rh    0.15448   -0.05951    0.12155
 25 Rh   -0.15254   -0.37490   -0.11795
 26 Rh   -0.03039   -0.12589    0.17552
 27 O     0.04609   -0.03726    0.16742
 28 C    -0.04001   -0.01466   -0.16377

System changes: positions 

Initializing position-dependent things.

Density initialized from wave functions
                                              
                                              
                                              
                                              
                                              
                                              
                        Rh    Rh              
               Rh  Rh                         
            RhRh   Rh    Rh      Rh           
        Rh                Rh Rh               
                 Rh  RRh                      
          Rh   Rh                   Rh        
                         Rh   Rh              
                   Rh   Rh    Rh              
               Rh                             
                     Rh     Rh                
                                              
                                              
                     O                        
                    C                         
                                              
                                              
                                              
                                              
                                              

Positions:
   0 Rh     2.199088    0.953467   12.613171    ( 0.0000,  0.0000,  0.0000)
   1 Rh     4.861622    0.594029   11.752594    ( 0.0000,  0.0000,  0.0000)
   2 Rh     7.763064   -0.194565   12.156790    ( 0.0000,  0.0000,  0.0000)
   3 Rh     3.237631    3.264497   11.929527    ( 0.0000,  0.0000,  0.0000)
   4 Rh     5.652481    3.330497   12.340439    ( 0.0000,  0.0000,  0.0000)
   5 Rh     8.035809    2.378866   12.267631    ( 0.0000,  0.0000,  0.0000)
   6 Rh     4.827905    5.169899   10.830569    ( 0.0000,  0.0000,  0.0000)
   7 Rh     7.323022    5.284479   11.682412    ( 0.0000,  0.0000,  0.0000)
   8 Rh     9.736449    5.146549   12.311377    ( 0.0000,  0.0000,  0.0000)
   9 Rh     0.434356    0.665179   14.660057    ( 0.0000,  0.0000,  0.0000)
  10 Rh     2.886591    1.322693   15.267392    ( 0.0000,  0.0000,  0.0000)
  11 Rh     6.186865    1.376351   13.799555    ( 0.0000,  0.0000,  0.0000)
  12 Rh     1.577507    3.128824   13.960847    ( 0.0000,  0.0000,  0.0000)
  13 Rh     4.050243    3.508287   14.433191    ( 0.0000,  0.0000,  0.0000)
  14 Rh     7.354533    3.932068   14.439018    ( 0.0000,  0.0000,  0.0000)
  15 Rh     2.732464    5.925855   14.453337    ( 0.0000,  0.0000,  0.0000)
  16 Rh     5.569478    5.578375   13.617910    ( 0.0000,  0.0000,  0.0000)
  17 Rh     8.143976    6.489604   13.901112    ( 0.0000,  0.0000,  0.0000)
  18 Rh    -0.666318    0.479096   16.983150    ( 0.0000,  0.0000,  0.0000)
  19 Rh     1.823164    0.670108   17.679913    ( 0.0000,  0.0000,  0.0000)
  20 Rh     5.147741    0.480355   16.098837    ( 0.0000,  0.0000,  0.0000)
  21 Rh     0.622057    2.554587   16.441881    ( 0.0000,  0.0000,  0.0000)
  22 Rh     3.119843    3.373456   16.864327    ( 0.0000,  0.0000,  0.0000)
  23 Rh     5.860401    2.991436   16.105078    ( 0.0000,  0.0000,  0.0000)
  24 Rh     1.153170    4.912449   15.978287    ( 0.0000,  0.0000,  0.0000)
  25 Rh     4.600306    5.353394   16.139821    ( 0.0000,  0.0000,  0.0000)
  26 Rh     6.988769    5.959762   16.279940    ( 0.0000,  0.0000,  0.0000)
  27 O      4.695686    1.026041    8.894255    ( 0.0000,  0.0000,  0.0000)
  28 C      4.445764    0.986938    7.785556    ( 0.0000,  0.0000,  0.0000)

Unit cell:
           periodic     x           y           z      points  spacing
  1. axis:    yes    8.124657    0.000000    0.000000    36     0.1954
  2. axis:    yes    4.062328    7.036159    0.000000    36     0.1954
  3. axis:    yes    0.000000    0.000000   28.422503   144     0.1974

  Lengths:   8.124657   8.124657  28.422503
  Angles:   90.000000  90.000000  60.000000

Effective grid spacing dv^(1/3) = 0.2057

     iter     time        total  log10-change:
                         energy  eigst   dens
iter:   1 12:08:06  -191.794800  -1.41
iter:   2 12:08:10  -192.452507  -2.19  -2.35
iter:   3 12:08:13  -191.696121  -2.71  -2.02
iter:   4 12:08:17  -191.596419  -3.79  -2.46
iter:   5 12:08:20  -191.591076c -4.13  -2.85
iter:   6 12:08:24  -191.588817c -4.18  -2.91
iter:   7 12:08:27  -191.585242c -3.99  -3.02
iter:   8 12:08:31  -191.584183c -4.33  -3.24
iter:   9 12:08:34  -191.585097c -4.97  -3.35
iter:  10 12:08:38  -191.583751c -5.21  -3.37
iter:  11 12:08:41  -191.584021c -5.32  -3.49
iter:  12 12:08:45  -191.583744c -5.56  -3.69
iter:  13 12:08:48  -191.583847c -5.82  -3.80
iter:  14 12:08:52  -191.583789c -5.84  -3.88
iter:  15 12:08:56  -191.583796c -6.06  -4.04c
iter:  16 12:08:59  -191.583806c -6.48  -4.14c
iter:  17 12:09:03  -191.583699c -6.84  -4.21c
iter:  18 12:09:07  -191.583861c -6.91  -4.24c
iter:  19 12:09:11  -191.583766c -6.67  -4.30c
iter:  20 12:09:14  -191.583794c -6.95  -4.53c
iter:  21 12:09:18  -191.583795c -7.53c -4.60c

Converged after 21 iterations.

Dipole moment: (17.297700, -22.417385, -0.003977) |e|*Ang

Energy contributions relative to reference atoms: (reference = -3516703.949422)

Kinetic:        -89.508176
Potential:      +16.870875
External:        +0.000000
XC:            -117.371977
Entropy (-ST):   -1.600354
Local:           -0.774340
--------------------------
Free energy:   -192.383972
Extrapolated:  -191.583795

 Band  Eigenvalues  Occupancy
    0    -48.03697    2.00000
    1    -47.96016    2.00000
    2    -47.91851    2.00000
    3    -47.89351    2.00000
    4    -47.85177    2.00000
    5    -47.83522    2.00000
    6    -47.80517    2.00000
    7    -47.77625    2.00000
    8    -47.76314    2.00000
    9    -47.74540    2.00000
   10    -47.68584    2.00000
   11    -47.67471    2.00000
   12    -47.66535    2.00000
   13    -47.64670    2.00000
   14    -47.64045    2.00000
   15    -47.62163    2.00000
   16    -47.60267    2.00000
   17    -47.58164    2.00000
   18    -47.57343    2.00000
   19    -47.56757    2.00000
   20    -47.52886    2.00000
   21    -47.50864    2.00000
   22    -47.49525    2.00000
   23    -47.48233    2.00000
   24    -47.45340    2.00000
   25    -47.44857    2.00000
   26    -47.42537    2.00000
   27    -47.41966    2.00000
   28    -47.39487    2.00000
   29    -47.37333    2.00000
   30    -47.36164    2.00000
   31    -47.35664    2.00000
   32    -47.35119    2.00000
   33    -47.32800    2.00000
   34    -47.32139    2.00000
   35    -47.29705    2.00000
   36    -47.29174    2.00000
   37    -47.27796    2.00000
   38    -47.27188    2.00000
   39    -47.24471    2.00000
   40    -47.23015    2.00000
   41    -47.20964    2.00000
   42    -47.19877    2.00000
   43    -47.18426    2.00000
   44    -47.17647    2.00000
   45    -47.16224    2.00000
   46    -47.14287    2.00000
   47    -47.12447    2.00000
   48    -47.11824    2.00000
   49    -47.10389    2.00000
   50    -47.04936    2.00000
   51    -47.03631    2.00000
   52    -47.02548    2.00000
   53    -47.00983    2.00000
   54    -47.00456    2.00000
   55    -46.98993    2.00000
   56    -46.97280    2.00000
   57    -46.96198    2.00000
   58    -46.95318    2.00000
   59    -46.92818    2.00000
   60    -46.91754    2.00000
   61    -46.86383    2.00000
   62    -46.85710    2.00000
   63    -46.84971    2.00000
   64    -46.84035    2.00000
   65    -46.82191    2.00000
   66    -46.80818    2.00000
   67    -46.79427    2.00000
   68    -46.78596    2.00000
   69    -46.75286    2.00000
   70    -46.73196    2.00000
   71    -46.71780    2.00000
   72    -46.70213    2.00000
   73    -46.69698    2.00000
   74    -46.65930    2.00000
   75    -46.56984    2.00000
   76    -46.55468    2.00000
   77    -46.54203    2.00000
   78    -46.53436    2.00000
   79    -46.52340    2.00000
   80    -46.37334    2.00000
   81    -25.50292    2.00000
   82    -10.65510    2.00000
   83     -8.17976    2.00000
   84     -8.15835    2.00000
   85     -7.63287    2.00000
   86     -6.32211    2.00000
   87     -6.27618    2.00000
   88     -6.24724    2.00000
   89     -6.16407    2.00000
   90     -6.14914    2.00000
   91     -6.03722    2.00000
   92     -6.03125    2.00000
   93     -6.01277    2.00000
   94     -5.95976    2.00000
   95     -5.84378    2.00000
   96     -5.82132    2.00000
   97     -5.80262    2.00000
   98     -5.70324    2.00000
   99     -5.68739    2.00000
  100     -5.60460    2.00000
  101     -5.57769    2.00000
  102     -5.52008    2.00000
  103     -5.49204    2.00000
  104     -5.45554    2.00000
  105     -5.39283    2.00000
  106     -5.35787    2.00000
  107     -5.33374    2.00000
  108     -5.25545    2.00000
  109     -5.18383    2.00000
  110     -5.14396    2.00000
  111     -5.11825    2.00000
  112     -5.03645    2.00000
  113     -4.94060    2.00000
  114     -4.91733    2.00000
  115     -4.89552    2.00000
  116     -4.82938    2.00000
  117     -4.80076    2.00000
  118     -4.70932    2.00000
  119     -4.64227    2.00000
  120     -4.60492    2.00000
  121     -4.56905    2.00000
  122     -4.54104    2.00000
  123     -4.47279    2.00000
  124     -4.40536    2.00000
  125     -4.37274    2.00000
  126     -4.32138    2.00000
  127     -4.29191    2.00000
  128     -4.25829    2.00000
  129     -4.19378    2.00000
  130     -4.15894    2.00000
  131     -4.11124    2.00000
  132     -4.08142    2.00000
  133     -4.01266    2.00000
  134     -3.96876    2.00000
  135     -3.92774    2.00000
  136     -3.83937    2.00000
  137     -3.80821    2.00000
  138     -3.74629    2.00000
  139     -3.71334    2.00000
  140     -3.69297    2.00000
  141     -3.64732    2.00000
  142     -3.58537    2.00000
  143     -3.56113    2.00000
  144     -3.50041    2.00000
  145     -3.49774    2.00000
  146     -3.41067    2.00000
  147     -3.39779    2.00000
  148     -3.33776    2.00000
  149     -3.29598    2.00000
  150     -3.24822    2.00000
  151     -3.20342    2.00000
  152     -3.13795    2.00000
  153     -3.10695    2.00000
  154     -3.05895    2.00000
  155     -2.99941    2.00000
  156     -2.98704    2.00000
  157     -2.91061    2.00000
  158     -2.87725    2.00000
  159     -2.82763    2.00000
  160     -2.80427    2.00000
  161     -2.76466    2.00000
  162     -2.72837    2.00000
  163     -2.66786    2.00000
  164     -2.62113    2.00000
  165     -2.58661    2.00000
  166     -2.53467    2.00000
  167     -2.52338    2.00000
  168     -2.47489    2.00000
  169     -2.46082    2.00000
  170     -2.42265    2.00000
  171     -2.36520    2.00000
  172     -2.32022    2.00000
  173     -2.29090    2.00000
  174     -2.24389    2.00000
  175     -2.20876    2.00000
  176     -2.16090    2.00000
  177     -2.09436    1.99999
  178     -2.04625    1.99999
  179     -1.98916    1.99998
  180     -1.92983    1.99997
  181     -1.88746    1.99995
  182     -1.85385    1.99993
  183     -1.82438    1.99991
  184     -1.77967    1.99986
  185     -1.75198    1.99981
  186     -1.67601    1.99960
  187     -1.62602    1.99935
  188     -1.59716    1.99913
  189     -1.56373    1.99878
  190     -1.53472    1.99837
  191     -1.50565    1.99783
  192     -1.41727    1.99475
  193     -1.40368    1.99399
  194     -1.36454    1.99112
  195     -1.30982    1.98470
  196     -1.28648    1.98071
  197     -1.27040    1.97739
  198     -1.21889    1.96244
  199     -1.15220    1.92810
  200     -1.12283    1.90472
  201     -1.07828    1.85512
  202     -1.05418    1.81920
  203     -0.99158    1.68655
  204     -0.96617    1.61338
  205     -0.91775    1.44001
  206     -0.84399    1.10306
  207     -0.78222    0.79741
  208     -0.76388    0.71135
  209     -0.73921    0.60269
  210     -0.70772    0.47887
  211     -0.66352    0.33658
  212     -0.63811    0.27129
  213     -0.58936    0.17582
  214     -0.55225    0.12471
  215     -0.51993    0.09185
  216     -0.46859    0.05600
  217     -0.43774    0.04144
  218     -0.40155    0.02904
  219     -0.36111    0.01948
  220     -0.32143    0.01314
  221     -0.27971    0.00868
  222     -0.22055    0.00481
  223     -0.20297    0.00404
  224     -0.17205    0.00296
  225     -0.09236    0.00134
  226      0.03218    0.00039
  227      0.11016    0.00018
  228      0.12303    0.00016
  229      0.20818    0.00007
  230      0.37548    0.00001
  231      0.48168    0.00000
  232      0.56750    0.00000
  233      0.71025    0.00000
  234      0.81900    0.00000
  235      0.83592    0.00000
  236      1.15511    0.00000
  237      1.57955    0.00000
  238      1.58965    0.00000
  239      2.33045    0.00000
  240      2.39650    0.00000
  241      2.67406    0.00000
  242      2.73809    0.00000
  243      2.77322    0.00000
  244      3.00153    0.00000
  245      3.25779    0.00000
  246      3.63924    0.00000
  247      3.91861    0.00000
  248      4.06820    0.00000
  249      4.28810    0.00000
  250      4.41009    0.00000
  251      4.60268    0.00000
  252      4.65209    0.00000

Fermi level: -0.82330

Gap: 0.062 eV
Transition (v -> c):
  (s=0, k=0, n=206, [0.00, 0.00, 0.00]) -> (s=0, k=0, n=207, [0.00, 0.00, 0.00])

Forces in eV/Ang:
  0 Rh    0.01112   -0.06386   -0.05899
  1 Rh    0.22685    0.20317    0.10299
  2 Rh    0.08199   -0.03728   -0.00678
  3 Rh   -0.11776   -0.07273   -0.02773
  4 Rh    0.12976    0.15907    0.03607
  5 Rh   -0.10783   -0.16847   -0.15485
  6 Rh   -0.15751    0.04124    0.01302
  7 Rh   -0.07819    0.03838    0.05594
  8 Rh   -0.06756    0.21366   -0.06220
  9 Rh    0.09687    0.23605   -0.05871
 10 Rh   -0.18516   -0.03859    0.13990
 11 Rh    0.13025   -0.02770    0.08656
 12 Rh   -0.02539    0.18514    0.20468
 13 Rh   -0.12481   -0.10195    0.07513
 14 Rh    0.10147    0.01802   -0.15849
 15 Rh   -0.01780   -0.04515    0.01288
 16 Rh    0.06168   -0.06218   -0.20515
 17 Rh    0.03375    0.07936   -0.04251
 18 Rh    0.16919   -0.12619    0.24586
 19 Rh    0.15169    0.21289   -0.02317
 20 Rh    0.11166   -0.00447    0.02534
 21 Rh   -0.23381   -0.04617   -0.12253
 22 Rh   -0.02824   -0.10392   -0.16127
 23 Rh    0.08970    0.09345    0.08079
 24 Rh   -0.04926   -0.17145   -0.05535
 25 Rh   -0.18159   -0.34636   -0.04001
 26 Rh   -0.04266    0.07319    0.14587
 27 O    -0.02301   -0.03462   -0.04535
 28 C     0.00162   -0.00373    0.02351

System changes: positions 

Initializing position-dependent things.

Density initialized from wave functions
                                              
                                              
                                              
                                              
                                              
                                              
                       Rh     Rh              
               Rh  Rh                         
            RhRh   Rh    Rh      Rh           
        Rh                Rh Rh               
                 Rh  RRh                      
          Rh   Rh                   Rh        
                         Rh   Rh              
                   Rh   Rh    Rh              
               Rh                             
                     Rh     Rh                
                                              
                                              
                     O                        
                    C                         
                                              
                                              
                                              
                                              
                                              

Positions:
   0 Rh     2.183269    0.939189   12.613902    ( 0.0000,  0.0000,  0.0000)
   1 Rh     4.910615    0.626557   11.774413    ( 0.0000,  0.0000,  0.0000)
   2 Rh     7.746430   -0.197192   12.152877    ( 0.0000,  0.0000,  0.0000)
   3 Rh     3.227449    3.249556   11.924897    ( 0.0000,  0.0000,  0.0000)
   4 Rh     5.643481    3.323774   12.321022    ( 0.0000,  0.0000,  0.0000)
   5 Rh     8.039386    2.377786   12.251942    ( 0.0000,  0.0000,  0.0000)
   6 Rh     4.825650    5.174233   10.834015    ( 0.0000,  0.0000,  0.0000)
   7 Rh     7.319700    5.283622   11.699457    ( 0.0000,  0.0000,  0.0000)
   8 Rh     9.723080    5.144415   12.298099    ( 0.0000,  0.0000,  0.0000)
   9 Rh     0.429418    0.656513   14.655126    ( 0.0000,  0.0000,  0.0000)
  10 Rh     2.880300    1.328091   15.279777    ( 0.0000,  0.0000,  0.0000)
  11 Rh     6.206235    1.396406   13.835788    ( 0.0000,  0.0000,  0.0000)
  12 Rh     1.580461    3.130120   13.942656    ( 0.0000,  0.0000,  0.0000)
  13 Rh     4.055033    3.504550   14.420491    ( 0.0000,  0.0000,  0.0000)
  14 Rh     7.356557    3.933445   14.415208    ( 0.0000,  0.0000,  0.0000)
  15 Rh     2.700599    5.918200   14.444411    ( 0.0000,  0.0000,  0.0000)
  16 Rh     5.564970    5.568632   13.608021    ( 0.0000,  0.0000,  0.0000)
  17 Rh     8.150249    6.520239   13.900033    ( 0.0000,  0.0000,  0.0000)
  18 Rh    -0.641675    0.458691   16.980850    ( 0.0000,  0.0000,  0.0000)
  19 Rh     1.851841    0.710610   17.684550    ( 0.0000,  0.0000,  0.0000)
  20 Rh     5.143893    0.476324   16.130394    ( 0.0000,  0.0000,  0.0000)
  21 Rh     0.615107    2.542013   16.438998    ( 0.0000,  0.0000,  0.0000)
  22 Rh     3.132766    3.366594   16.850639    ( 0.0000,  0.0000,  0.0000)
  23 Rh     5.879980    2.998575   16.093957    ( 0.0000,  0.0000,  0.0000)
  24 Rh     1.128011    4.901348   15.975547    ( 0.0000,  0.0000,  0.0000)
  25 Rh     4.563149    5.333996   16.114775    ( 0.0000,  0.0000,  0.0000)
  26 Rh     6.949695    5.969532   16.260884    ( 0.0000,  0.0000,  0.0000)
  27 O      4.698684    1.028099    8.921997    ( 0.0000,  0.0000,  0.0000)
  28 C      4.448704    0.986535    7.814470    ( 0.0000,  0.0000,  0.0000)

Unit cell:
           periodic     x           y           z      points  spacing
  1. axis:    yes    8.124657    0.000000    0.000000    36     0.1954
  2. axis:    yes    4.062328    7.036159    0.000000    36     0.1954
  3. axis:    yes    0.000000    0.000000   28.422503   144     0.1974

  Lengths:   8.124657   8.124657  28.422503
  Angles:   90.000000  90.000000  60.000000

Effective grid spacing dv^(1/3) = 0.2057

     iter     time        total  log10-change:
                         energy  eigst   dens
iter:   1 12:09:32  -192.449693  -1.07
