
  ___ ___ ___ _ _ _  
 |   |   |_  | | | | 
 | | | | | . | | | | 
 |__ |  _|___|_____|  22.8.0
 |___|_|             

User:   patriku@vera10-1
Date:   Sun Feb 26 12:39:28 2023
Arch:   x86_64
Pid:    2376802
CWD:    /cephyr/users/patriku/Vera/Assignment4/task6_vera/Rh
Python: 3.10.4
gpaw:   /apps/Arch/software/GPAW/22.8.0-foss-2022a/lib/python3.10/site-packages/gpaw
_gpaw:  /apps/Arch/software/GPAW/22.8.0-foss-2022a/lib/python3.10/site-packages/
        _gpaw.cpython-310-x86_64-linux-gnu.so
ase:    /apps/Arch/software/ASE/3.22.1-foss-2022a/lib/python3.10/site-packages/ase (version 3.22.1)
numpy:  /apps/Arch/software/SciPy-bundle/2022.05-foss-2022a/lib/python3.10/site-packages/numpy (version 1.22.3)
scipy:  /apps/Arch/software/SciPy-bundle/2022.05-foss-2022a/lib/python3.10/site-packages/scipy (version 1.8.1)
libxc:  5.2.3
units:  Angstrom and eV
cores: 30
OpenMP: False
OMP_NUM_THREADS: 1

Input parameters:
  kpts: [4 4 1]
  xc: PBE

System changes: positions, numbers, cell, pbc, initial_charges, initial_magmoms 

Initialize ...

species:
  Rh:
    name: Rhodium
    id: 4e1d209aee696a641de1ffa1459b299f
    Z: 45.0
    valence: 15
    core: 30
    charge: 0.0
    file: /apps/Common/software/GPAW-setups/0.9.20000/Rh.PBE.gz
    compensation charges: {type: gauss,
                           rc: 0.38,
                           lmax: 2}
    cutoffs: {filter: 2.48,
              core: 2.35}
    valence states:
      #              energy  rcut
      - 5s(1.00)    -4.297   1.270
      - 4p(6.00)   -50.429   1.381
      - 5p(0.00)    -0.852   1.381
      - 4d(8.00)    -5.942   1.244
      -  s          22.915   1.270
      -  d          21.270   1.244
  
    # Using partial waves for Rh as LCAO basis

  O:
    name: Oxygen
    id: 32ecd46bf208036f09c70b0ec9a88b78
    Z: 8.0
    valence: 6
    core: 2
    charge: 0.0
    file: /apps/Common/software/GPAW-setups/0.9.20000/O.PBE.gz
    compensation charges: {type: gauss,
                           rc: 0.21,
                           lmax: 2}
    cutoffs: {filter: 1.17,
              core: 0.83}
    valence states:
      #              energy  rcut
      - 2s(2.00)   -23.961   0.688
      - 2p(4.00)    -9.029   0.598
      -  s           3.251   0.688
      -  p          18.182   0.598
      -  d           0.000   0.619
  
    # Using partial waves for O as LCAO basis

  C:
    name: Carbon
    id: 4aa54d4b901d75f77cc0ea3eec22967b
    Z: 6.0
    valence: 4
    core: 2
    charge: 0.0
    file: /apps/Common/software/GPAW-setups/0.9.20000/C.PBE.gz
    compensation charges: {type: gauss,
                           rc: 0.20,
                           lmax: 2}
    cutoffs: {filter: 1.14,
              core: 1.14}
    valence states:
      #              energy  rcut
      - 2s(2.00)   -13.751   0.635
      - 2p(2.00)    -5.284   0.635
      -  s          13.461   0.635
      -  p          21.927   0.635
      -  d           0.000   0.635
  
    # Using partial waves for C as LCAO basis

Reference energy: -3516703.949422  # eV

Spin-paired calculation

Convergence criteria:
 Maximum [total energy] change in last 3 cyles: 0.0005 eV / electron
 Maximum integral of absolute [dens]ity change: 0.0001 electrons / valence electron
 Maximum integral of absolute [eigenst]ate change: 4e-08 eV^2 / valence electron
 Maximum number of scf [iter]ations: 333
 (Square brackets indicate name in SCF output, whereas a 'c' in
 the SCF output indicates the quantity has converged.)

Symmetries present (total): 1

  ( 1  0  0)
  ( 0  1  0)
  ( 0  0  1)

16 k-points: 4 x 4 x 1 Monkhorst-Pack grid
8 k-points in the irreducible part of the Brillouin zone
       k-points in crystal coordinates                weights
   0:     0.12500000   -0.37500000    0.00000000          2/16
   1:     0.12500000   -0.12500000    0.00000000          2/16
   2:     0.12500000    0.12500000    0.00000000          2/16
   3:     0.12500000    0.37500000    0.00000000          2/16
   4:     0.37500000   -0.37500000    0.00000000          2/16
   5:     0.37500000   -0.12500000    0.00000000          2/16
   6:     0.37500000    0.12500000    0.00000000          2/16
   7:     0.37500000    0.37500000    0.00000000          2/16

Wave functions: Uniform real-space grid
  Kinetic energy operator: 8*3+1=25 point O(h^6) finite-difference Laplacian
  ScaLapack parameters: grid=1x1, blocksize=None
  Wavefunction extrapolation:
    Improved wavefunction reuse through dual PAW basis 

Occupation numbers: Fermi-Dirac:
  width: 0.1000  # eV
 

Eigensolver
   Davidson(niter=2) 

Densities:
  Coarse grid: 36*36*144 grid
  Fine grid: 72*72*288 grid
  Total Charge: 0.000000 

Density mixing:
  Method: separate
  Backend: pulay
  Linear mixing parameter: 0.05
  old densities: 5
  Damping of long wavelength oscillations: 50 

Hamiltonian:
  XC and Coulomb potentials evaluated on a 72*72*288 grid
  Using the PBE Exchange-Correlation functional
  Interpolation: tri-quintic (5. degree polynomial)
  Poisson solver: FastPoissonSolver using
    Stencil: 8*3+1=25 point O(h^6) finite-difference Laplacian
    FFT axes: [0, 1, 2]
    FST axes: []
 

XC parameters: PBE with 2 nearest neighbor stencil

Memory estimate:
  Process memory now: 223.31 MiB
  Calculator: 270.97 MiB
    Density: 13.64 MiB
      Arrays: 2.49 MiB
      Localized functions: 10.19 MiB
      Mixer: 0.96 MiB
    Hamiltonian: 2.44 MiB
      Arrays: 1.62 MiB
      XC: 0.00 MiB
      Poisson: 0.00 MiB
      vbar: 0.81 MiB
    Wavefunctions: 254.90 MiB
      Arrays psit_nG: 193.46 MiB
      Eigensolver: 59.09 MiB
      Projections: 0.53 MiB
      Projectors: 1.82 MiB

Total number of cores used: 30
Parallelization over k-points: 2
Domain decomposition: 1 x 3 x 5

Number of atoms: 29
Number of atomic orbitals: 332
Number of bands in calculation: 253
Number of valence electrons: 415
Bands to converge: occupied

... initialized

Initializing position-dependent things.

Density initialized from atomic densities
Creating initial wave functions:
  253 bands from LCAO basis set

                                           
                                           
                                           
                                           
                                           
                                           
                     O                     
                     C                     
                Rh     Rh     Rh           
                                           
            Rh   RRh    RRh    Rh          
       Rh    RRh   RRh    Rh               
                                           
        Rh     Rh   RRh    Rh    Rh        
                                           
                Rh    Rh     Rh            
           Rh    Rh     Rh                 
                                           
                                           
                                           
                                           

Positions:
   0 Rh     1.354115    0.781798   12.046554    ( 0.0000,  0.0000,  0.0000)
   1 Rh     4.062328    0.781808   12.046558    ( 0.0000,  0.0000,  0.0000)
   2 Rh     6.770542    0.781798   12.046554    ( 0.0000,  0.0000,  0.0000)
   3 Rh     2.708230    3.127176   12.046558    ( 0.0000,  0.0000,  0.0000)
   4 Rh     5.416427    3.127176   12.046558    ( 0.0000,  0.0000,  0.0000)
   5 Rh     8.124657    3.127172   12.046558    ( 0.0000,  0.0000,  0.0000)
   6 Rh     4.062328    5.472562   12.046554    ( 0.0000,  0.0000,  0.0000)
   7 Rh     6.770539    5.472573   12.046558    ( 0.0000,  0.0000,  0.0000)
   8 Rh     9.478775    5.472573   12.046558    ( 0.0000,  0.0000,  0.0000)
   9 Rh    -0.000000    1.563605   14.211247    ( 0.0000,  0.0000,  0.0000)
  10 Rh     2.708215    1.563589   14.211243    ( 0.0000,  0.0000,  0.0000)
  11 Rh     5.416442    1.563589   14.211243    ( 0.0000,  0.0000,  0.0000)
  12 Rh     1.354100    3.908983   14.211241    ( 0.0000,  0.0000,  0.0000)
  13 Rh     4.062328    3.908982   14.211243    ( 0.0000,  0.0000,  0.0000)
  14 Rh     6.770557    3.908983   14.211241    ( 0.0000,  0.0000,  0.0000)
  15 Rh     2.708207    6.254357   14.211247    ( 0.0000,  0.0000,  0.0000)
  16 Rh     5.416450    6.254357   14.211247    ( 0.0000,  0.0000,  0.0000)
  17 Rh     8.124657    6.254353   14.211241    ( 0.0000,  0.0000,  0.0000)
  18 Rh    -0.000000    0.000000   16.375907    ( 0.0000,  0.0000,  0.0000)
  19 Rh     2.708237    0.000001   16.375899    ( 0.0000,  0.0000,  0.0000)
  20 Rh     5.416420    0.000001   16.375899    ( 0.0000,  0.0000,  0.0000)
  21 Rh     1.354119    2.345402   16.375899    ( 0.0000,  0.0000,  0.0000)
  22 Rh     4.062328    2.345386   16.375897    ( 0.0000,  0.0000,  0.0000)
  23 Rh     6.770538    2.345402   16.375899    ( 0.0000,  0.0000,  0.0000)
  24 Rh     2.708210    4.690757   16.375899    ( 0.0000,  0.0000,  0.0000)
  25 Rh     5.416446    4.690757   16.375899    ( 0.0000,  0.0000,  0.0000)
  26 Rh     8.124657    4.690773   16.375896    ( 0.0000,  0.0000,  0.0000)
  27 O      5.000000    3.000000   19.575170    ( 0.0000,  0.0000,  0.0000)
  28 C      5.000000    3.000000   18.424830    ( 0.0000,  0.0000,  0.0000)

Unit cell:
           periodic     x           y           z      points  spacing
  1. axis:    yes    8.124657    0.000000    0.000000    36     0.1954
  2. axis:    yes    4.062328    7.036159    0.000000    36     0.1954
  3. axis:    yes    0.000000    0.000000   28.422503   144     0.1974

  Lengths:   8.124657   8.124657  28.422503
  Angles:   90.000000  90.000000  60.000000

Effective grid spacing dv^(1/3) = 0.2057

     iter     time        total  log10-change:
                         energy  eigst   dens
iter:   1 12:40:14  -213.057057
iter:   2 12:40:47  -212.182199  -0.49  -1.38
iter:   3 12:41:19  -211.336184  -1.21  -1.38
iter:   4 12:41:53  -205.782236  -1.27  -1.38
iter:   5 12:42:24  -201.225329  -1.05  -1.50
iter:   6 12:42:57  -200.791537  -1.42  -1.81
iter:   7 12:43:28  -200.807522  -1.84  -2.06
iter:   8 12:44:02  -200.794598c -2.47  -2.19
iter:   9 12:44:34  -200.660799c -2.03  -2.22
iter:  10 12:45:06  -200.630566c -2.72  -2.52
iter:  11 12:45:38  -200.629140c -2.89  -2.75
iter:  12 12:46:11  -200.626667c -3.10  -2.80
iter:  13 12:46:45  -200.622137c -3.18  -2.87
iter:  14 12:47:19  -200.622222c -3.40  -3.02
iter:  15 12:47:51  -200.621719c -3.58  -3.10
iter:  16 12:48:23  -200.622768c -3.65  -3.22
iter:  17 12:48:57  -200.623391c -3.92  -3.37
iter:  18 12:49:30  -200.623068c -4.40  -3.41
iter:  19 12:50:02  -200.623063c -4.56  -3.38
iter:  20 12:50:34  -200.621703c -4.49  -3.47
iter:  21 12:51:06  -200.621839c -5.21  -3.88
iter:  22 12:51:37  -200.621902c -5.57  -4.01c
iter:  23 12:52:10  -200.621783c -5.63  -4.04c
iter:  24 12:52:43  -200.621814c -6.18  -4.22c
iter:  25 12:53:18  -200.621816c -6.47  -4.35c
iter:  26 12:53:50  -200.621851c -6.50  -4.33c
iter:  27 12:54:22  -200.621837c -6.76  -4.38c
iter:  28 12:54:54  -200.621819c -6.73  -4.62c
iter:  29 12:55:25  -200.621810c -6.99  -4.66c
iter:  30 12:55:58  -200.621807c -7.29  -4.73c
iter:  31 12:56:31  -200.621811c -7.56c -4.84c

Converged after 31 iterations.

Dipole moment: (-2.698007, -1.554806, -0.044474) |e|*Ang

Energy contributions relative to reference atoms: (reference = -3516703.949422)

Kinetic:       -130.513848
Potential:      +50.535527
External:        +0.000000
XC:            -119.479457
Entropy (-ST):   -1.624598
Local:           -0.351734
--------------------------
Free energy:   -201.434110
Extrapolated:  -200.621811

Showing only first 2 kpts
 Kpt  Band  Eigenvalues  Occupancy
  0   205     -1.16989    1.43387
  0   206     -1.13546    1.28444
  0   207     -1.05844    0.90767
  0   208     -0.97912    0.54641

  1   205     -1.14905    1.34561
  1   206     -1.10354    1.13212
  1   207     -1.09261    1.07809
  1   208     -1.04360    0.83474


Fermi level: -1.07696

No gap

Forces in eV/Ang:
  0 Rh   -0.03810   -0.00505   -0.09878
  1 Rh   -0.01979    0.01272    0.03067
  2 Rh    0.06336   -0.00741   -0.02230
  3 Rh   -0.00188   -0.01840    0.02391
  4 Rh   -0.01138   -0.00268    0.04476
  5 Rh    0.01251   -0.05054    0.00403
  6 Rh    0.01867    0.04730   -0.01695
  7 Rh   -0.03721    0.02490    0.01649
  8 Rh    0.01115    0.00341    0.05266
  9 Rh   -0.04512    0.02422    0.09900
 10 Rh    0.16135    0.07894    0.27447
 11 Rh   -0.01352   -0.01683   -0.18263
 12 Rh    0.00623    0.01092    0.03772
 13 Rh   -0.01202    0.00275   -0.20361
 14 Rh    0.01273    0.01468   -0.09486
 15 Rh   -0.02247   -0.01409    0.04823
 16 Rh    0.00621   -0.06400    0.11329
 17 Rh    0.00684    0.00422    0.03022
 18 Rh   -0.00184    0.01504   -0.04939
 19 Rh   -0.04049   -0.08025   -0.09116
 20 Rh    0.03517   -0.19561   -0.10543
 21 Rh   -0.10181   -0.00264   -0.08881
 22 Rh    0.33995    0.25288    1.54088
 23 Rh    0.19249   -0.02348    0.25109
 24 Rh   -0.18080    0.14361   -0.10878
 25 Rh    0.06001    0.06317    0.46198
 26 Rh    0.07977    0.04230   -0.06668
 27 O     0.21164    0.14087    0.12477
 28 C    -0.65949   -0.36101   -2.00524

System changes: positions 

Initializing position-dependent things.

Density initialized from wave functions
                                           
                                           
                                           
                                           
                                           
                                           
                     O                     
                     C                     
                Rh     Rh     Rh           
                                           
            Rh   RRh    RRh    Rh          
       Rh    RRh   RRh    Rh               
                                           
        Rh     Rh   RRh    Rh    Rh        
                                           
                Rh    Rh     Rh            
           Rh    Rh     Rh                 
                                           
                                           
                                           
                                           

Positions:
   0 Rh     1.353570    0.781726   12.045143    ( 0.0000,  0.0000,  0.0000)
   1 Rh     4.062046    0.781990   12.046996    ( 0.0000,  0.0000,  0.0000)
   2 Rh     6.771447    0.781693   12.046236    ( 0.0000,  0.0000,  0.0000)
   3 Rh     2.708203    3.126913   12.046899    ( 0.0000,  0.0000,  0.0000)
   4 Rh     5.416265    3.127137   12.047197    ( 0.0000,  0.0000,  0.0000)
   5 Rh     8.124836    3.126450   12.046616    ( 0.0000,  0.0000,  0.0000)
   6 Rh     4.062595    5.473238   12.046312    ( 0.0000,  0.0000,  0.0000)
   7 Rh     6.770007    5.472929   12.046794    ( 0.0000,  0.0000,  0.0000)
   8 Rh     9.478934    5.472622   12.047310    ( 0.0000,  0.0000,  0.0000)
   9 Rh    -0.000645    1.563951   14.212661    ( 0.0000,  0.0000,  0.0000)
  10 Rh     2.710520    1.564716   14.215164    ( 0.0000,  0.0000,  0.0000)
  11 Rh     5.416249    1.563348   14.208634    ( 0.0000,  0.0000,  0.0000)
  12 Rh     1.354189    3.909139   14.211780    ( 0.0000,  0.0000,  0.0000)
  13 Rh     4.062157    3.909021   14.208335    ( 0.0000,  0.0000,  0.0000)
  14 Rh     6.770739    3.909193   14.209886    ( 0.0000,  0.0000,  0.0000)
  15 Rh     2.707886    6.254156   14.211935    ( 0.0000,  0.0000,  0.0000)
  16 Rh     5.416539    6.253443   14.212865    ( 0.0000,  0.0000,  0.0000)
  17 Rh     8.124755    6.254413   14.211673    ( 0.0000,  0.0000,  0.0000)
  18 Rh    -0.000026    0.000215   16.375202    ( 0.0000,  0.0000,  0.0000)
  19 Rh     2.707659   -0.001146   16.374597    ( 0.0000,  0.0000,  0.0000)
  20 Rh     5.416922   -0.002794   16.374393    ( 0.0000,  0.0000,  0.0000)
  21 Rh     1.352665    2.345364   16.374630    ( 0.0000,  0.0000,  0.0000)
  22 Rh     4.067185    2.348999   16.397910    ( 0.0000,  0.0000,  0.0000)
  23 Rh     6.773288    2.345066   16.379486    ( 0.0000,  0.0000,  0.0000)
  24 Rh     2.705628    4.692809   16.374345    ( 0.0000,  0.0000,  0.0000)
  25 Rh     5.417304    4.691659   16.382499    ( 0.0000,  0.0000,  0.0000)
  26 Rh     8.125796    4.691377   16.374943    ( 0.0000,  0.0000,  0.0000)
  27 O      5.003023    3.002012   19.576952    ( 0.0000,  0.0000,  0.0000)
  28 C      4.990579    2.994843   18.396184    ( 0.0000,  0.0000,  0.0000)

Unit cell:
           periodic     x           y           z      points  spacing
  1. axis:    yes    8.124657    0.000000    0.000000    36     0.1954
  2. axis:    yes    4.062328    7.036159    0.000000    36     0.1954
  3. axis:    yes    0.000000    0.000000   28.422503   144     0.1974

  Lengths:   8.124657   8.124657  28.422503
  Angles:   90.000000  90.000000  60.000000

Effective grid spacing dv^(1/3) = 0.2057

     iter     time        total  log10-change:
                         energy  eigst   dens
iter:   1 12:58:14  -200.885091  -2.17
iter:   2 12:58:46  -201.276716  -2.70  -2.53
iter:   3 12:59:18  -200.813973  -3.03  -2.15
iter:   4 12:59:52  -200.714303  -3.50  -2.57
iter:   5 13:00:23  -200.706166c -3.82  -3.02
iter:   6 13:00:56  -200.703013c -4.32  -3.10
iter:   7 13:01:28  -200.699028c -3.90  -3.18
iter:   8 13:01:59  -200.698915c -4.31  -3.56
iter:   9 13:02:32  -200.699148c -4.97  -3.56
iter:  10 13:03:03  -200.699026c -5.07  -3.44
iter:  11 13:03:36  -200.698065c -5.19  -3.50
iter:  12 13:04:07  -200.698038c -5.58  -3.93
iter:  13 13:04:41  -200.698015c -6.12  -4.03c
iter:  14 13:05:13  -200.698025c -6.23  -4.17c
iter:  15 13:05:44  -200.698045c -6.56  -4.35c
iter:  16 13:06:16  -200.698031c -6.89  -4.35c
iter:  17 13:06:50  -200.698032c -7.27  -4.16c
iter:  18 13:07:23  -200.698028c -7.07  -4.53c
iter:  19 13:07:55  -200.698028c -7.27  -4.75c
iter:  20 13:08:28  -200.698023c -7.89c -4.82c

Converged after 20 iterations.

Dipole moment: (-2.387472, -1.401942, -0.104048) |e|*Ang

Energy contributions relative to reference atoms: (reference = -3516703.949422)

Kinetic:       -134.651792
Potential:      +53.870477
External:        +0.000000
XC:            -118.731614
Entropy (-ST):   -1.624425
Local:           -0.372880
--------------------------
Free energy:   -201.510235
Extrapolated:  -200.698023

Showing only first 2 kpts
 Kpt  Band  Eigenvalues  Occupancy
  0   205     -1.22125    1.44662
  0   206     -1.18187    1.27622
  0   207     -1.10432    0.89620
  0   208     -1.02626    0.54224

  1   205     -1.19444    1.33320
  1   206     -1.15112    1.12907
  1   207     -1.13932    1.07070
  1   208     -1.09199    0.83567


Fermi level: -1.12516

No gap

Forces in eV/Ang:
  0 Rh   -0.04024   -0.00520   -0.08970
  1 Rh   -0.02734    0.01242    0.03345
  2 Rh    0.07008   -0.00908   -0.02232
  3 Rh   -0.00626   -0.02595    0.02734
  4 Rh   -0.01074   -0.00326    0.03109
  5 Rh    0.01554   -0.05071    0.00495
  6 Rh    0.02162    0.05480   -0.01667
  7 Rh   -0.03631    0.02778    0.01676
  8 Rh    0.00791    0.00226    0.05187
  9 Rh   -0.02688    0.01580    0.09010
 10 Rh    0.17118    0.08607    0.28519
 11 Rh   -0.03324    0.00734   -0.12746
 12 Rh    0.00815   -0.00090    0.02769
 13 Rh    0.00100   -0.02328   -0.14323
 14 Rh   -0.00334    0.00892   -0.06330
 15 Rh   -0.01206   -0.00810    0.03859
 16 Rh    0.00666   -0.04669    0.10309
 17 Rh   -0.00148    0.01101    0.02110
 18 Rh    0.00157    0.01198   -0.04623
 19 Rh   -0.02772   -0.06581   -0.07924
 20 Rh    0.02843   -0.16381   -0.09793
 21 Rh   -0.07935   -0.00080   -0.07927
 22 Rh    0.38853    0.28249    1.62269
 23 Rh    0.15381   -0.00563    0.26322
 24 Rh   -0.15330    0.12360   -0.09879
 25 Rh    0.05617    0.02105    0.48191
 26 Rh    0.06708    0.03767   -0.06486
 27 O     0.20015    0.13226   -2.53399
 28 C    -0.68013   -0.37879    0.45458

System changes: positions 

Initializing position-dependent things.

Density initialized from wave functions
                                           
                                           
                                           
                                           
                                           
                                           
                     O                     
                     C                     
                Rh     Rh     Rh           
                                           
            Rh   RRh    RRh    Rh          
       Rh    RRh   RRh    Rh               
                                           
        Rh     Rh   RRh    Rh    Rh        
                                           
                Rh    Rh     Rh            
           Rh    Rh     Rh                 
                                           
                                           
                                           
                                           

Positions:
   0 Rh     1.351072    0.781398   12.038990    ( 0.0000,  0.0000,  0.0000)
   1 Rh     4.060606    0.782801   12.049030    ( 0.0000,  0.0000,  0.0000)
   2 Rh     6.775672    0.781179   12.044801    ( 0.0000,  0.0000,  0.0000)
   3 Rh     2.707985    3.125562   12.048513    ( 0.0000,  0.0000,  0.0000)
   4 Rh     5.415547    3.126952   12.049774    ( 0.0000,  0.0000,  0.0000)
   5 Rh     8.125707    3.123195   12.046895    ( 0.0000,  0.0000,  0.0000)
   6 Rh     4.063861    5.476446   12.045228    ( 0.0000,  0.0000,  0.0000)
   7 Rh     6.767634    5.474594   12.047860    ( 0.0000,  0.0000,  0.0000)
   8 Rh     9.479580    5.472816   12.050680    ( 0.0000,  0.0000,  0.0000)
   9 Rh    -0.003144    1.565323   14.218832    ( 0.0000,  0.0000,  0.0000)
  10 Rh     2.721116    1.569952   14.233056    ( 0.0000,  0.0000,  0.0000)
  11 Rh     5.414943    1.562800   14.198107    ( 0.0000,  0.0000,  0.0000)
  12 Rh     1.354632    3.909580   14.213984    ( 0.0000,  0.0000,  0.0000)
  13 Rh     4.061672    3.908622   14.196572    ( 0.0000,  0.0000,  0.0000)
  14 Rh     6.771203    3.910010   14.204482    ( 0.0000,  0.0000,  0.0000)
  15 Rh     2.706671    6.253382   14.214825    ( 0.0000,  0.0000,  0.0000)
  16 Rh     5.416949    6.249709   14.219927    ( 0.0000,  0.0000,  0.0000)
  17 Rh     8.125011    6.254835   14.213415    ( 0.0000,  0.0000,  0.0000)
  18 Rh    -0.000069    0.001115   16.372095    ( 0.0000,  0.0000,  0.0000)
  19 Rh     2.705337   -0.005989   16.368997    ( 0.0000,  0.0000,  0.0000)
  20 Rh     5.419035   -0.014673   16.367777    ( 0.0000,  0.0000,  0.0000)
  21 Rh     1.346613    2.345235   16.369129    ( 0.0000,  0.0000,  0.0000)
  22 Rh     4.090126    2.365920   16.498834    ( 0.0000,  0.0000,  0.0000)
  23 Rh     6.784814    2.343951   16.395905    ( 0.0000,  0.0000,  0.0000)
  24 Rh     2.694606    4.701604   16.367569    ( 0.0000,  0.0000,  0.0000)
  25 Rh     5.421079    4.694791   16.412656    ( 0.0000,  0.0000,  0.0000)
  26 Rh     8.130647    4.693996   16.370694    ( 0.0000,  0.0000,  0.0000)
  27 O      5.016383    3.010883   19.526189    ( 0.0000,  0.0000,  0.0000)
  28 C      4.947701    2.971228   18.321590    ( 0.0000,  0.0000,  0.0000)

Unit cell:
           periodic     x           y           z      points  spacing
  1. axis:    yes    8.124657    0.000000    0.000000    36     0.1954
  2. axis:    yes    4.062328    7.036159    0.000000    36     0.1954
  3. axis:    yes    0.000000    0.000000   28.422503   144     0.1974

  Lengths:   8.124657   8.124657  28.422503
  Angles:   90.000000  90.000000  60.000000

Effective grid spacing dv^(1/3) = 0.2057

     iter     time        total  log10-change:
                         energy  eigst   dens
iter:   1 13:10:11  -203.291593  -1.13
iter:   2 13:10:43  -220.097066  -1.21  -1.81
iter:   3 13:11:16  -201.221972  -1.77  -1.42
iter:   4 13:11:48  -201.080230  -2.54  -2.40
iter:   5 13:12:22  -201.040943c -2.92  -2.57
iter:   6 13:12:53  -201.018368c -3.18  -2.71
iter:   7 13:13:24  -201.016091c -3.70  -2.99
iter:   8 13:13:56  -201.012781c -4.15  -3.06
iter:   9 13:14:27  -201.018517c -4.20  -3.16
iter:  10 13:14:58  -201.010529c -4.38  -2.98
iter:  11 13:15:29  -201.010045c -4.71  -3.37
iter:  12 13:16:01  -201.009911c -4.91  -3.49
iter:  13 13:16:32  -201.009801c -5.22  -3.59
iter:  14 13:17:03  -201.009957c -5.44  -3.71
iter:  15 13:17:34  -201.010056c -5.79  -3.73
iter:  16 13:18:05  -201.009921c -5.69  -3.65
iter:  17 13:18:36  -201.009887c -6.12  -3.88
iter:  18 13:19:07  -201.009818c -6.25  -4.03c
iter:  19 13:19:38  -201.009805c -6.45  -4.22c
iter:  20 13:20:10  -201.009793c -6.64  -4.37c
iter:  21 13:20:41  -201.009892c -6.72  -4.39c
iter:  22 13:21:12  -201.009793c -6.88  -4.07c
iter:  23 13:21:43  -201.009795c -7.49c -4.66c

Converged after 23 iterations.

Dipole moment: (-1.116780, -0.771477, -0.186573) |e|*Ang

Energy contributions relative to reference atoms: (reference = -3516703.949422)

Kinetic:       -139.161527
Potential:      +57.527800
External:        +0.000000
XC:            -118.225828
Entropy (-ST):   -1.624726
Local:           -0.337877
--------------------------
Free energy:   -201.822158
Extrapolated:  -201.009795

Showing only first 2 kpts
 Kpt  Band  Eigenvalues  Occupancy
  0   205     -1.30115    1.47494
  0   206     -1.25335    1.27054
  0   207     -1.16959    0.85961
  0   208     -1.09218    0.51586

  1   205     -1.25835    1.29354
  1   206     -1.22169    1.11861
  1   207     -1.20570    1.03919
  1   208     -1.16511    0.83769


Fermi level: -1.19786

No gap

Forces in eV/Ang:
  0 Rh   -0.04638   -0.00916   -0.01256
  1 Rh   -0.05235    0.00634    0.05359
  2 Rh    0.09031   -0.01772   -0.01154
  3 Rh   -0.02460   -0.04995    0.05172
  4 Rh   -0.00491   -0.00426   -0.02004
  5 Rh    0.02562   -0.04219    0.02029
  6 Rh    0.02900    0.08241   -0.00545
  7 Rh   -0.02514    0.03550    0.02658
  8 Rh   -0.00794   -0.00290    0.04788
  9 Rh    0.03411   -0.00975    0.04148
 10 Rh    0.18926    0.10369    0.25878
 11 Rh   -0.08770    0.09033    0.05800
 12 Rh    0.01158   -0.05145   -0.02561
 13 Rh    0.05015   -0.10438    0.06740
 14 Rh   -0.06442   -0.01674    0.05910
 15 Rh    0.03607    0.02085   -0.02132
 16 Rh    0.00906    0.00940    0.05136
 17 Rh   -0.03757    0.03579   -0.02585
 18 Rh    0.01701   -0.00278   -0.00767
 19 Rh    0.02842   -0.00800    0.00643
 20 Rh   -0.00804   -0.00487   -0.04251
 21 Rh    0.01964    0.01094   -0.00477
 22 Rh    0.29894    0.20179    1.21967
 23 Rh    0.08618    0.02459    0.16645
 24 Rh   -0.01745    0.01780   -0.03776
 25 Rh    0.06350   -0.00377    0.32425
 26 Rh    0.00329    0.01283   -0.03594
 27 O     0.01724    0.00047   -4.04431
 28 C    -0.65012   -0.36582    1.96562

System changes: positions 

Initializing position-dependent things.

Density initialized from wave functions
                                           
                                           
                                           
                                           
                                           
                                           
                     O                     
                     C                     
                Rh     Rh     Rh           
                   Rh                      
            Rh   Rh     RRh    Rh          
       Rh    RRh   RRh    Rh               
                                           
        Rh     Rh   RRh    Rh    Rh        
                      Rh                   
                Rh           Rh            
           Rh    Rh     Rh                 
                                           
                                           
                                           
                                           

Positions:
   0 Rh     1.345855    0.780624   12.028587    ( 0.0000,  0.0000,  0.0000)
   1 Rh     4.057058    0.784280   12.053692    ( 0.0000,  0.0000,  0.0000)
   2 Rh     6.784739    0.779911   12.042193    ( 0.0000,  0.0000,  0.0000)
   3 Rh     2.707072    3.122224   12.052434    ( 0.0000,  0.0000,  0.0000)
   4 Rh     5.414248    3.126554   12.053696    ( 0.0000,  0.0000,  0.0000)
   5 Rh     8.127728    3.116836   12.047882    ( 0.0000,  0.0000,  0.0000)
   6 Rh     4.066607    5.483653   12.043341    ( 0.0000,  0.0000,  0.0000)
   7 Rh     6.763125    5.478159   12.050295    ( 0.0000,  0.0000,  0.0000)
   8 Rh     9.480476    5.473076   12.057408    ( 0.0000,  0.0000,  0.0000)
   9 Rh    -0.006674    1.567467   14.230068    ( 0.0000,  0.0000,  0.0000)
  10 Rh     2.743012    1.580992   14.268493    ( 0.0000,  0.0000,  0.0000)
  11 Rh     5.410956    1.563784   14.181436    ( 0.0000,  0.0000,  0.0000)
  12 Rh     1.355608    3.909170   14.217056    ( 0.0000,  0.0000,  0.0000)
  13 Rh     4.061942    3.905788   14.178054    ( 0.0000,  0.0000,  0.0000)
  14 Rh     6.770584    3.911002   14.196655    ( 0.0000,  0.0000,  0.0000)
  15 Rh     2.705456    6.252567   14.219097    ( 0.0000,  0.0000,  0.0000)
  16 Rh     5.417842    6.243546   14.232893    ( 0.0000,  0.0000,  0.0000)
  17 Rh     8.124598    6.256319   14.215720    ( 0.0000,  0.0000,  0.0000)
  18 Rh     0.000243    0.002554   16.366844    ( 0.0000,  0.0000,  0.0000)
  19 Rh     2.702080   -0.014325   16.359927    ( 0.0000,  0.0000,  0.0000)
  20 Rh     5.422363   -0.034610   16.355844    ( 0.0000,  0.0000,  0.0000)
  21 Rh     1.336901    2.345284   16.359968    ( 0.0000,  0.0000,  0.0000)
  22 Rh     4.133684    2.397696   16.691429    ( 0.0000,  0.0000,  0.0000)
  23 Rh     6.806651    2.342368   16.426377    ( 0.0000,  0.0000,  0.0000)
  24 Rh     2.675802    4.716663   16.355444    ( 0.0000,  0.0000,  0.0000)
  25 Rh     5.428973    4.700837   16.469206    ( 0.0000,  0.0000,  0.0000)
  26 Rh     8.138815    4.698653   16.362871    ( 0.0000,  0.0000,  0.0000)
  27 O      5.038462    3.025265   19.405653    ( 0.0000,  0.0000,  0.0000)
  28 C      4.861801    2.923879   18.189833    ( 0.0000,  0.0000,  0.0000)

Unit cell:
           periodic     x           y           z      points  spacing
  1. axis:    yes    8.124657    0.000000    0.000000    36     0.1954
  2. axis:    yes    4.062328    7.036159    0.000000    36     0.1954
  3. axis:    yes    0.000000    0.000000   28.422503   144     0.1974

  Lengths:   8.124657   8.124657  28.422503
  Angles:   90.000000  90.000000  60.000000

Effective grid spacing dv^(1/3) = 0.2057

     iter     time        total  log10-change:
                         energy  eigst   dens
iter:   1 13:23:23  -215.681922  -0.62
iter:   2 13:23:54  -289.390785  -0.33  -1.41
iter:   3 13:24:26  -205.402847  -1.10  -1.12
iter:   4 13:24:57  -201.643732  -1.62  -1.79
iter:   5 13:25:28  -201.293867  -2.32  -2.14
iter:   6 13:26:00  -201.131908  -2.39  -2.33
iter:   7 13:26:31  -201.031483  -2.57  -2.40
iter:   8 13:27:02  -201.016562c -3.13  -2.64
iter:   9 13:27:34  -201.004957c -3.52  -2.76
iter:  10 13:28:05  -201.000037c -3.63  -2.89
iter:  11 13:28:36  -201.001023c -3.99  -3.07
iter:  12 13:29:07  -201.000585c -4.07  -3.03
iter:  13 13:29:39  -200.997980c -4.24  -3.11
iter:  14 13:30:10  -200.997244c -4.49  -3.28
iter:  15 13:30:41  -200.996814c -4.72  -3.46
iter:  16 13:31:13  -200.996751c -4.94  -3.62
iter:  17 13:31:44  -200.996709c -5.18  -3.76
iter:  18 13:32:15  -200.996814c -5.48  -3.81
iter:  19 13:32:46  -200.996721c -5.91  -3.72
iter:  20 13:33:17  -200.996689c -6.12  -3.90
iter:  21 13:33:49  -200.996698c -5.99  -3.95
iter:  22 13:34:20  -200.996706c -6.13  -4.10c
iter:  23 13:34:51  -200.996730c -6.29  -4.13c
iter:  24 13:35:23  -200.996741c -6.42  -4.12c
iter:  25 13:35:54  -200.996728c -6.63  -4.10c
iter:  26 13:36:26  -200.996728c -6.61  -4.13c
iter:  27 13:36:57  -200.996730c -6.51  -4.32c
iter:  28 13:37:28  -200.996744c -6.81  -4.50c
iter:  29 13:37:59  -200.996749c -7.00  -4.52c
iter:  30 13:38:31  -200.996753c -7.27  -4.59c
iter:  31 13:39:02  -200.996757c -7.49c -4.58c

Converged after 31 iterations.

Dipole moment: (1.060281, 0.324955, -0.324066) |e|*Ang

Energy contributions relative to reference atoms: (reference = -3516703.949422)

Kinetic:       -128.776664
Potential:      +49.023915
External:        +0.000000
XC:            -120.086541
Entropy (-ST):   -1.623474
Local:           -0.345730
--------------------------
Free energy:   -201.808494
Extrapolated:  -200.996757

Showing only first 2 kpts
 Kpt  Band  Eigenvalues  Occupancy
  0   205     -1.42785    1.48400
  0   206     -1.37750    1.26961
  0   207     -1.28184    0.80085
  0   208     -1.20733    0.48141

  1   205     -1.36785    1.22431
  1   206     -1.34100    1.09369
  1   207     -1.31566    0.96727
  1   208     -1.28744    0.82787


Fermi level: -1.32221

No gap

Forces in eV/Ang:
  0 Rh   -0.04320   -0.02201    0.14908
  1 Rh   -0.07706   -0.01470    0.06631
  2 Rh    0.10037   -0.03617   -0.00208
  3 Rh   -0.05096   -0.07029    0.07669
  4 Rh    0.01118   -0.00287   -0.11479
  5 Rh    0.03495   -0.00865    0.04864
  6 Rh    0.02910    0.11748    0.00479
  7 Rh    0.00826    0.03905    0.04158
  8 Rh   -0.03055   -0.00821    0.02258
  9 Rh    0.09270   -0.04445   -0.07703
 10 Rh    0.01409    0.02467   -0.16731
 11 Rh   -0.07961    0.15113    0.26258
 12 Rh    0.00756   -0.11877   -0.12177
 13 Rh    0.09561   -0.13383    0.32072
 14 Rh   -0.12688   -0.05548    0.24253
 15 Rh    0.12675    0.07638   -0.16713
 16 Rh   -0.00112    0.07237   -0.06279
 17 Rh   -0.08564    0.05890   -0.10829
 18 Rh    0.03116   -0.03427    0.06321
 19 Rh    0.12018    0.07330    0.20821
 20 Rh   -0.09475    0.36764    0.14814
 21 Rh    0.18917    0.04175    0.18106
 22 Rh   -1.29870   -0.95746   -2.80345
 23 Rh   -0.04008    0.03078   -0.27910
 24 Rh    0.30110   -0.24908    0.16764
 25 Rh    0.10491    0.17482   -0.41561
 26 Rh   -0.13139   -0.04395    0.03771
 27 O    -0.28628   -0.08909   -4.41086
 28 C     0.99790    0.63951    6.57778

System changes: positions 

Initializing position-dependent things.

Density initialized from wave functions
                                           
                                           
                                           
                                           
                                           
                                           
                     O                     
                     C                     
                Rh     Rh     Rh           
                   Rh                      
            Rh   Rh     RRh    Rh          
       Rh    RRh   RRh    Rh               
                                           
        Rh     Rh   RRh    Rh    Rh        
                                           
                Rh    Rh     Rh            
           Rh    Rh     Rh                 
                                           
                                           
                                           
                                           

Positions:
   0 Rh     1.348486    0.780930   12.035107    ( 0.0000,  0.0000,  0.0000)
   1 Rh     4.058601    0.783391   12.051504    ( 0.0000,  0.0000,  0.0000)
   2 Rh     6.780295    0.780415   12.043629    ( 0.0000,  0.0000,  0.0000)
   3 Rh     2.707304    3.123688   12.050707    ( 0.0000,  0.0000,  0.0000)
   4 Rh     5.415020    3.126758   12.050958    ( 0.0000,  0.0000,  0.0000)
   5 Rh     8.126803    3.120279   12.047610    ( 0.0000,  0.0000,  0.0000)
   6 Rh     4.065253    5.480319   12.044416    ( 0.0000,  0.0000,  0.0000)
   7 Rh     6.765642    5.476408   12.049191    ( 0.0000,  0.0000,  0.0000)
   8 Rh     9.479821    5.472889   12.053847    ( 0.0000,  0.0000,  0.0000)
   9 Rh    -0.004260    1.566070   14.223508    ( 0.0000,  0.0000,  0.0000)
  10 Rh     2.731136    1.575097   14.248250    ( 0.0000,  0.0000,  0.0000)
  11 Rh     5.412725    1.564040   14.191919    ( 0.0000,  0.0000,  0.0000)
  12 Rh     1.355110    3.908765   14.214723    ( 0.0000,  0.0000,  0.0000)
  13 Rh     4.062300    3.906639   14.189855    ( 0.0000,  0.0000,  0.0000)
  14 Rh     6.770253    3.910164   14.202206    ( 0.0000,  0.0000,  0.0000)
  15 Rh     2.706787    6.253416   14.215872    ( 0.0000,  0.0000,  0.0000)
  16 Rh     5.417353    6.247290   14.225460    ( 0.0000,  0.0000,  0.0000)
  17 Rh     8.124370    6.255816   14.213880    ( 0.0000,  0.0000,  0.0000)
  18 Rh     0.000241    0.001586   16.370083    ( 0.0000,  0.0000,  0.0000)
  19 Rh     2.704497   -0.009373   16.366012    ( 0.0000,  0.0000,  0.0000)
  20 Rh     5.420043   -0.021770   16.363153    ( 0.0000,  0.0000,  0.0000)
  21 Rh     1.343216    2.345477   16.365958    ( 0.0000,  0.0000,  0.0000)
  22 Rh     4.103165    2.375380   16.571483    ( 0.0000,  0.0000,  0.0000)
  23 Rh     6.794613    2.343352   16.408128    ( 0.0000,  0.0000,  0.0000)
  24 Rh     2.687672    4.707114   16.362951    ( 0.0000,  0.0000,  0.0000)
  25 Rh     5.425219    4.698565   16.435901    ( 0.0000,  0.0000,  0.0000)
  26 Rh     8.133649    4.695870   16.367373    ( 0.0000,  0.0000,  0.0000)
  27 O      5.024685    3.016742   19.460920    ( 0.0000,  0.0000,  0.0000)
  28 C      4.913644    2.952917   18.283672    ( 0.0000,  0.0000,  0.0000)

Unit cell:
           periodic     x           y           z      points  spacing
  1. axis:    yes    8.124657    0.000000    0.000000    36     0.1954
  2. axis:    yes    4.062328    7.036159    0.000000    36     0.1954
  3. axis:    yes    0.000000    0.000000   28.422503   144     0.1974

  Lengths:   8.124657   8.124657  28.422503
  Angles:   90.000000  90.000000  60.000000

Effective grid spacing dv^(1/3) = 0.2057

     iter     time        total  log10-change:
                         energy  eigst   dens
iter:   1 13:40:42  -204.778843  -0.82
iter:   2 13:41:13  -224.465316  -1.15  -1.75
iter:   3 13:41:45  -201.578903  -1.67  -1.37
iter:   4 13:42:16  -201.494351  -2.29  -2.33
iter:   5 13:42:47  -201.340144  -2.82  -2.31
iter:   6 13:43:18  -201.305734c -2.88  -2.65
iter:   7 13:43:49  -201.283195c -3.33  -2.71
iter:   8 13:44:20  -201.279943c -3.92  -2.93
iter:   9 13:44:51  -201.273328c -3.85  -2.97
iter:  10 13:45:22  -201.272087c -3.74  -3.13
iter:  11 13:45:53  -201.272117c -4.17  -3.20
iter:  12 13:46:24  -201.270183c -4.77  -3.23
iter:  13 13:46:55  -201.270035c -4.96  -3.45
iter:  14 13:47:27  -201.269952c -4.92  -3.55
iter:  15 13:47:58  -201.270198c -5.19  -3.69
iter:  16 13:48:29  -201.269961c -5.39  -3.65
iter:  17 13:49:00  -201.270017c -5.58  -3.93
iter:  18 13:49:31  -201.270005c -5.85  -3.89
iter:  19 13:50:02  -201.269957c -6.49  -4.02c
iter:  20 13:50:33  -201.269961c -6.22  -4.14c
iter:  21 13:51:04  -201.269964c -6.26  -4.28c
iter:  22 13:51:36  -201.269961c -6.74  -4.41c
iter:  23 13:52:07  -201.269965c -7.26  -4.64c
iter:  24 13:52:38  -201.269965c -7.34  -4.80c
iter:  25 13:53:09  -201.269969c -7.61c -4.83c

Converged after 25 iterations.

Dipole moment: (-0.323960, -0.361479, -0.182472) |e|*Ang

Energy contributions relative to reference atoms: (reference = -3516703.949422)

Kinetic:       -135.390287
Potential:      +54.367362
External:        +0.000000
XC:            -119.125732
Entropy (-ST):   -1.624772
Local:           -0.308927
--------------------------
Free energy:   -202.082356
Extrapolated:  -201.269969

Showing only first 2 kpts
 Kpt  Band  Eigenvalues  Occupancy
  0   205     -1.30514    1.47970
  0   206     -1.25692    1.27428
  0   207     -1.16786    0.83766
  0   208     -1.08987    0.49668

  1   205     -1.25524    1.26652
  1   206     -1.22364    1.11459
  1   207     -1.20280    1.01090
  1   208     -1.16806    0.83863


Fermi level: -1.20062

No gap

Forces in eV/Ang:
  0 Rh   -0.03938   -0.01147    0.05730
  1 Rh   -0.05761    0.00136    0.05799
  2 Rh    0.08201   -0.01868   -0.00360
  3 Rh   -0.02986   -0.05511    0.06114
  4 Rh    0.00097   -0.00344   -0.05770
  5 Rh    0.02378   -0.02504    0.03159
  6 Rh    0.02829    0.08156    0.00249
  7 Rh   -0.01210    0.03068    0.03203
  8 Rh   -0.01673   -0.00518    0.03993
  9 Rh    0.06287   -0.02132    0.00173
 10 Rh    0.11055    0.06650    0.11795
 11 Rh   -0.07824    0.11381    0.14619
 12 Rh    0.00839   -0.06590   -0.05801
 13 Rh    0.07193   -0.10992    0.17439
 14 Rh   -0.08614   -0.03007    0.12935
 15 Rh    0.05930    0.03579   -0.06267
 16 Rh    0.01001    0.03897    0.01086
 17 Rh   -0.04712    0.03774   -0.05524
 18 Rh    0.01705   -0.01769    0.02458
 19 Rh    0.06454    0.02137    0.08045
 20 Rh   -0.02836    0.12225    0.01349
 21 Rh    0.07965    0.02554    0.06208
 22 Rh    0.15899    0.10484    0.50700
 23 Rh    0.02307    0.02584   -0.00430
 24 Rh    0.09936   -0.06930    0.02350
 25 Rh    0.05101    0.02260   -0.01626
 26 Rh   -0.04057   -0.00787   -0.01060
 27 O     0.05772    0.10345   -1.99615
 28 C    -0.65537   -0.37428    0.69619

System changes: positions 

Initializing position-dependent things.

Density initialized from wave functions
                                           
                                           
                                           
                                           
                                           
                                           
                     O                     
                     C                     
                Rh     Rh     Rh           
                   Rh                      
            Rh   Rh     RRh    Rh          
       Rh    RRh   RRh    Rh               
                                           
        Rh     Rh   RRh    Rh    Rh        
                                           
                Rh    Rh     Rh            
           Rh    Rh     Rh                 
                                           
                                           
                                           
                                           

Positions:
   0 Rh     1.347275    0.780654   12.034496    ( 0.0000,  0.0000,  0.0000)
   1 Rh     4.057405    0.783584   12.052870    ( 0.0000,  0.0000,  0.0000)
   2 Rh     6.782571    0.779981   12.043206    ( 0.0000,  0.0000,  0.0000)
   3 Rh     2.706799    3.122563   12.052022    ( 0.0000,  0.0000,  0.0000)
   4 Rh     5.414868    3.126666   12.050758    ( 0.0000,  0.0000,  0.0000)
   5 Rh     8.127376    3.119114   12.048176    ( 0.0000,  0.0000,  0.0000)
   6 Rh     4.065970    5.482362   12.044173    ( 0.0000,  0.0000,  0.0000)
   7 Rh     6.764894    5.477282   12.049954    ( 0.0000,  0.0000,  0.0000)
   8 Rh     9.479738    5.472866   12.055264    ( 0.0000,  0.0000,  0.0000)
   9 Rh    -0.004074    1.566129   14.225011    ( 0.0000,  0.0000,  0.0000)
  10 Rh     2.735151    1.577248   14.253781    ( 0.0000,  0.0000,  0.0000)
  11 Rh     5.411417    1.565438   14.191139    ( 0.0000,  0.0000,  0.0000)
  12 Rh     1.355328    3.907892   14.214378    ( 0.0000,  0.0000,  0.0000)
  13 Rh     4.063168    3.905103   14.189196    ( 0.0000,  0.0000,  0.0000)
  14 Rh     6.769157    3.909925   14.202703    ( 0.0000,  0.0000,  0.0000)
  15 Rh     2.707414    6.253786   14.215530    ( 0.0000,  0.0000,  0.0000)
  16 Rh     5.417572    6.246826   14.227351    ( 0.0000,  0.0000,  0.0000)
  17 Rh     8.123727    6.256468   14.213474    ( 0.0000,  0.0000,  0.0000)
  18 Rh     0.000482    0.001546   16.369703    ( 0.0000,  0.0000,  0.0000)
  19 Rh     2.704865   -0.010312   16.365949    ( 0.0000,  0.0000,  0.0000)
  20 Rh     5.420069   -0.022723   16.361910    ( 0.0000,  0.0000,  0.0000)
  21 Rh     1.342889    2.345841   16.365652    ( 0.0000,  0.0000,  0.0000)
  22 Rh     4.107345    2.378369   16.595976    ( 0.0000,  0.0000,  0.0000)
  23 Rh     6.798090    2.343302   16.411529    ( 0.0000,  0.0000,  0.0000)
  24 Rh     2.686537    4.708103   16.361816    ( 0.0000,  0.0000,  0.0000)
  25 Rh     5.427102    4.700436   16.442302    ( 0.0000,  0.0000,  0.0000)
  26 Rh     8.134197    4.696383   16.366221    ( 0.0000,  0.0000,  0.0000)
  27 O      5.028269    3.020185   19.434227    ( 0.0000,  0.0000,  0.0000)
  28 C      4.897340    2.944056   18.269445    ( 0.0000,  0.0000,  0.0000)

Unit cell:
           periodic     x           y           z      points  spacing
  1. axis:    yes    8.124657    0.000000    0.000000    36     0.1954
  2. axis:    yes    4.062328    7.036159    0.000000    36     0.1954
  3. axis:    yes    0.000000    0.000000   28.422503   144     0.1974

  Lengths:   8.124657   8.124657  28.422503
  Angles:   90.000000  90.000000  60.000000

Effective grid spacing dv^(1/3) = 0.2057

     iter     time        total  log10-change:
                         energy  eigst   dens
iter:   1 13:54:49  -202.148500  -2.02
iter:   2 13:55:20  -208.909504  -1.74  -2.05
iter:   3 13:55:52  -201.390987  -2.24  -1.61
iter:   4 13:56:23  -201.358330  -3.08  -2.73
iter:   5 13:56:54  -201.336360c -3.31  -2.96
iter:   6 13:57:25  -201.333129c -4.01  -3.23
iter:   7 13:57:57  -201.332929c -4.68  -3.37
iter:   8 13:58:28  -201.332228c -4.68  -3.39
iter:   9 13:59:00  -201.335539c -4.74  -3.50
iter:  10 13:59:31  -201.331765c -5.17  -3.20
iter:  11 14:00:02  -201.331598c -5.78  -3.72
iter:  12 14:00:34  -201.331568c -5.80  -3.98
iter:  13 14:01:05  -201.331536c -5.98  -4.08c
iter:  14 14:01:36  -201.331517c -6.30  -4.17c
iter:  15 14:02:07  -201.331518c -6.45  -4.27c
iter:  16 14:02:38  -201.331525c -6.91  -4.37c
iter:  17 14:03:10  -201.331508c -7.20  -4.20c
iter:  18 14:03:41  -201.331515c -7.11  -4.53c
iter:  19 14:04:12  -201.331523c -7.33  -4.73c
iter:  20 14:04:43  -201.331525c -7.78c -4.76c

Converged after 20 iterations.

Dipole moment: (-0.171069, -0.268304, -0.179986) |e|*Ang

Energy contributions relative to reference atoms: (reference = -3516703.949422)

Kinetic:       -133.117241
Potential:      +52.491523
External:        +0.000000
XC:            -119.601007
Entropy (-ST):   -1.624234
Local:           -0.292683
--------------------------
Free energy:   -202.143642
Extrapolated:  -201.331525

Showing only first 2 kpts
 Kpt  Band  Eigenvalues  Occupancy
  0   205     -1.30496    1.47997
  0   206     -1.25696    1.27563
  0   207     -1.16621    0.83085
  0   208     -1.08770    0.48954

  1   205     -1.25215    1.25327
  1   206     -1.22267    1.11107
  1   207     -1.20038    1.00008
  1   208     -1.16812    0.84012


Fermi level: -1.20037

No gap

Forces in eV/Ang:
  0 Rh   -0.03365   -0.01257    0.07964
  1 Rh   -0.05276    0.00129    0.05808
  2 Rh    0.06970   -0.01501    0.00216
  3 Rh   -0.02558   -0.05101    0.06402
  4 Rh    0.00231   -0.00271   -0.06289
  5 Rh    0.01725   -0.01563    0.03666
  6 Rh    0.02683    0.07092    0.00832
  7 Rh   -0.00755    0.02330    0.03448
  8 Rh   -0.01808   -0.00543    0.03667
  9 Rh    0.06727   -0.02181   -0.00646
 10 Rh    0.07298    0.04639    0.06175
 11 Rh   -0.06442    0.10785    0.15692
 12 Rh    0.00769   -0.06149   -0.05834
 13 Rh    0.06996   -0.09758    0.18701
 14 Rh   -0.08171   -0.03164    0.13915
 15 Rh    0.05890    0.03588   -0.06505
 16 Rh    0.01122    0.04683    0.00039
 17 Rh   -0.04298    0.03433   -0.05565
 18 Rh    0.01701   -0.01930    0.03389
 19 Rh    0.07241    0.02985    0.09904
 20 Rh   -0.03028    0.14850    0.02519
 21 Rh    0.09287    0.02892    0.07973
 22 Rh    0.03073    0.01388    0.13398
 23 Rh    0.00289    0.02147   -0.07692
 24 Rh    0.12458   -0.08708    0.03542
 25 Rh    0.04770    0.04196   -0.13578
 26 Rh   -0.04602   -0.01154   -0.00418
 27 O     0.15690    0.14535   -1.07808
 28 C    -0.65004   -0.40308    0.19420

System changes: positions 

Initializing position-dependent things.

Density initialized from wave functions
                                           
                                           
                                           
                                           
                                           
                                           
                     O                     
                     C                     
                Rh     Rh     Rh           
                   Rh                      
            Rh   Rh     RRh    Rh          
       Rh    RRh   RRh    Rh               
                                           
        Rh     Rh   RRh    Rh    Rh        
                                           
                Rh    Rh     Rh            
           Rh    Rh     Rh                 
                                           
                                           
                                           
                                           

Positions:
   0 Rh     1.344687    0.779933   12.035160    ( 0.0000,  0.0000,  0.0000)
   1 Rh     4.054515    0.783947   12.056247    ( 0.0000,  0.0000,  0.0000)
   2 Rh     6.787508    0.779038   12.042604    ( 0.0000,  0.0000,  0.0000)
   3 Rh     2.705569    3.119810   12.055464    ( 0.0000,  0.0000,  0.0000)
   4 Rh     5.414663    3.126474   12.049266    ( 0.0000,  0.0000,  0.0000)
   5 Rh     8.128545    3.116977   12.049883    ( 0.0000,  0.0000,  0.0000)
   6 Rh     4.067654    5.486941   12.043992    ( 0.0000,  0.0000,  0.0000)
   7 Rh     6.763532    5.479067   12.051924    ( 0.0000,  0.0000,  0.0000)
   8 Rh     9.479269    5.472733   12.058317    ( 0.0000,  0.0000,  0.0000)
   9 Rh    -0.002555    1.565865   14.227412    ( 0.0000,  0.0000,  0.0000)
  10 Rh     2.742708    1.581417   14.263460    ( 0.0000,  0.0000,  0.0000)
  11 Rh     5.408322    1.569563   14.192531    ( 0.0000,  0.0000,  0.0000)
  12 Rh     1.355829    3.905423   14.212805    ( 0.0000,  0.0000,  0.0000)
  13 Rh     4.065812    3.901031   14.191333    ( 0.0000,  0.0000,  0.0000)
  14 Rh     6.765964    3.908950   14.206059    ( 0.0000,  0.0000,  0.0000)
  15 Rh     2.709485    6.255034   14.213809    ( 0.0000,  0.0000,  0.0000)
  16 Rh     5.418169    6.246926   14.230508    ( 0.0000,  0.0000,  0.0000)
  17 Rh     8.121966    6.258119   14.211836    ( 0.0000,  0.0000,  0.0000)
  18 Rh     0.001189    0.001126   16.369763    ( 0.0000,  0.0000,  0.0000)
  19 Rh     2.706862   -0.011322   16.367832    ( 0.0000,  0.0000,  0.0000)
  20 Rh     5.419581   -0.021451   16.360354    ( 0.0000,  0.0000,  0.0000)
  21 Rh     1.344093    2.347030   16.366768    ( 0.0000,  0.0000,  0.0000)
  22 Rh     4.112502    2.381939   16.633827    ( 0.0000,  0.0000,  0.0000)
  23 Rh     6.803892    2.343481   16.414846    ( 0.0000,  0.0000,  0.0000)
  24 Rh     2.687069    4.708072   16.360626    ( 0.0000,  0.0000,  0.0000)
  25 Rh     5.431170    4.704841   16.449051    ( 0.0000,  0.0000,  0.0000)
  26 Rh     8.134308    4.697033   16.364231    ( 0.0000,  0.0000,  0.0000)
  27 O      5.039260    3.029559   19.385452    ( 0.0000,  0.0000,  0.0000)
  28 C      4.858038    2.921243   18.239824    ( 0.0000,  0.0000,  0.0000)

Unit cell:
           periodic     x           y           z      points  spacing
  1. axis:    yes    8.124657    0.000000    0.000000    36     0.1954
  2. axis:    yes    4.062328    7.036159    0.000000    36     0.1954
  3. axis:    yes    0.000000    0.000000   28.422503   144     0.1974

  Lengths:   8.124657   8.124657  28.422503
  Angles:   90.000000  90.000000  60.000000

Effective grid spacing dv^(1/3) = 0.2057

     iter     time        total  log10-change:
                         energy  eigst   dens
iter:   1 14:06:23  -203.500180  -1.52
iter:   2 14:06:54  -220.077855  -1.28  -1.84
iter:   3 14:07:26  -201.631683  -1.84  -1.43
iter:   4 14:07:57  -201.449962  -2.57  -2.43
iter:   5 14:08:28  -201.399739  -2.94  -2.73
iter:   6 14:08:59  -201.384598c -3.33  -2.95
iter:   7 14:09:31  -201.383716c -4.08  -3.18
iter:   8 14:10:02  -201.383454c -4.38  -3.19
iter:   9 14:10:33  -201.395101c -4.33  -3.19
iter:  10 14:11:04  -201.381068c -4.52  -2.93
iter:  11 14:11:36  -201.380808c -5.25  -3.52
iter:  12 14:12:07  -201.380776c -5.29  -3.72
iter:  13 14:12:38  -201.380770c -5.57  -3.83
iter:  14 14:13:09  -201.380636c -5.64  -3.91
iter:  15 14:13:40  -201.380636c -5.77  -4.09c
iter:  16 14:14:12  -201.380712c -6.26  -4.10c
iter:  17 14:14:43  -201.380591c -6.48  -3.92
iter:  18 14:15:14  -201.380599c -7.01  -4.43c
iter:  19 14:15:45  -201.380598c -7.19  -4.47c
iter:  20 14:16:17  -201.380605c -7.25  -4.55c
iter:  21 14:16:48  -201.380603c -7.62c -4.64c

Converged after 21 iterations.

Dipole moment: (-0.149972, -0.209114, -0.187129) |e|*Ang

Energy contributions relative to reference atoms: (reference = -3516703.949422)

Kinetic:       -128.775368
Potential:      +48.958304
External:        +0.000000
XC:            -120.449962
Entropy (-ST):   -1.621766
Local:           -0.302694
--------------------------
Free energy:   -202.191486
Extrapolated:  -201.380603

Showing only first 2 kpts
 Kpt  Band  Eigenvalues  Occupancy
  0   205     -1.31283    1.47933
  0   206     -1.26533    1.27718
  0   207     -1.17240    0.82190
  0   208     -1.09248    0.47759

  1   205     -1.25406    1.22436
  1   206     -1.22730    1.09419
  1   207     -1.20436    0.97974
  1   208     -1.17733    0.84585


Fermi level: -1.20841

No gap

Forces in eV/Ang:
  0 Rh   -0.01870   -0.01460    0.11630
  1 Rh   -0.02998    0.00532    0.05699
  2 Rh    0.03084   -0.00383    0.01659
  3 Rh   -0.00613   -0.03210    0.06844
  4 Rh    0.00135   -0.00230   -0.05536
  5 Rh   -0.00324    0.00675    0.04905
  6 Rh    0.01929    0.03505    0.02290
  7 Rh    0.00111    0.00080    0.04152
  8 Rh   -0.01477   -0.00392    0.03268
  9 Rh    0.06605   -0.01687   -0.01318
 10 Rh   -0.00010    0.00465   -0.03633
 11 Rh   -0.02373    0.07573    0.14352
 12 Rh    0.00617   -0.03291   -0.04361
 13 Rh    0.05328   -0.05496    0.17061
 14 Rh   -0.05245   -0.02777    0.13093
 15 Rh    0.04062    0.02642   -0.05144
 16 Rh    0.01469    0.05613   -0.01100
 17 Rh   -0.01845    0.01843   -0.04349
 18 Rh    0.01000   -0.01867    0.05439
 19 Rh    0.07688    0.03621    0.12494
 20 Rh   -0.01499    0.14526    0.03974
 21 Rh    0.09437    0.03550    0.10756
 22 Rh   -0.32565   -0.23780   -0.82641
 23 Rh   -0.01208    0.00471   -0.17328
 24 Rh    0.12925   -0.07955    0.04748
 25 Rh    0.03528    0.07908   -0.29700
 26 Rh   -0.03291   -0.01146    0.01150
 27 O     0.28088    0.21390    0.00726
 28 C    -0.43506   -0.29184    0.21296

System changes: positions 

Initializing position-dependent things.

Density initialized from wave functions
                                           
                                           
                                           
                                           
                                           
                                           
                     O                     
                     C                     
                Rh     Rh     Rh           
                   Rh                      
            Rh   Rh     RRh    Rh          
       Rh    RRh   RRh    Rh               
                                           
        Rh     Rh   RRh    Rh    Rh        
                                           
                Rh    Rh     Rh            
           Rh    Rh     Rh                 
                                           
                                           
                                           
                                           

Positions:
   0 Rh     1.344306    0.779684   12.037220    ( 0.0000,  0.0000,  0.0000)
   1 Rh     4.053857    0.784004   12.057261    ( 0.0000,  0.0000,  0.0000)
   2 Rh     6.788220    0.778909   12.042850    ( 0.0000,  0.0000,  0.0000)
   3 Rh     2.705343    3.119134   12.056664    ( 0.0000,  0.0000,  0.0000)
   4 Rh     5.414708    3.126432   12.048143    ( 0.0000,  0.0000,  0.0000)
   5 Rh     8.128592    3.117035   12.050708    ( 0.0000,  0.0000,  0.0000)
   6 Rh     4.068025    5.487735   12.044346    ( 0.0000,  0.0000,  0.0000)
   7 Rh     6.763551    5.479183   12.052626    ( 0.0000,  0.0000,  0.0000)
   8 Rh     9.478965    5.472648   12.058876    ( 0.0000,  0.0000,  0.0000)
   9 Rh    -0.001282    1.565498   14.227079    ( 0.0000,  0.0000,  0.0000)
  10 Rh     2.742903    1.581634   14.262986    ( 0.0000,  0.0000,  0.0000)
  11 Rh     5.407682    1.571160   14.195463    ( 0.0000,  0.0000,  0.0000)
  12 Rh     1.355938    3.904644   14.211859    ( 0.0000,  0.0000,  0.0000)
  13 Rh     4.066911    3.899783   14.194813    ( 0.0000,  0.0000,  0.0000)
  14 Rh     6.764812    3.908399   14.208633    ( 0.0000,  0.0000,  0.0000)
  15 Rh     2.710365    6.255593   14.212712    ( 0.0000,  0.0000,  0.0000)
  16 Rh     5.418411    6.247975   14.230230    ( 0.0000,  0.0000,  0.0000)
  17 Rh     8.121479    6.258538   14.210915    ( 0.0000,  0.0000,  0.0000)
  18 Rh     0.001404    0.000752   16.370716    ( 0.0000,  0.0000,  0.0000)
  19 Rh     2.708300   -0.010606   16.370107    ( 0.0000,  0.0000,  0.0000)
  20 Rh     5.419179   -0.018510   16.361146    ( 0.0000,  0.0000,  0.0000)
  21 Rh     1.345938    2.347655   16.368709    ( 0.0000,  0.0000,  0.0000)
  22 Rh     4.108407    2.378904   16.622520    ( 0.0000,  0.0000,  0.0000)
  23 Rh     6.803540    2.343680   16.411894    ( 0.0000,  0.0000,  0.0000)
  24 Rh     2.689658    4.706383   16.361580    ( 0.0000,  0.0000,  0.0000)
  25 Rh     5.431796    4.706014   16.443829    ( 0.0000,  0.0000,  0.0000)
  26 Rh     8.133523    4.696765   16.364444    ( 0.0000,  0.0000,  0.0000)
  27 O      5.043333    3.033032   19.382777    ( 0.0000,  0.0000,  0.0000)
  28 C      4.849441    2.915670   18.242435    ( 0.0000,  0.0000,  0.0000)

Unit cell:
           periodic     x           y           z      points  spacing
  1. axis:    yes    8.124657    0.000000    0.000000    36     0.1954
  2. axis:    yes    4.062328    7.036159    0.000000    36     0.1954
  3. axis:    yes    0.000000    0.000000   28.422503   144     0.1974

  Lengths:   8.124657   8.124657  28.422503
  Angles:   90.000000  90.000000  60.000000

Effective grid spacing dv^(1/3) = 0.2057

     iter     time        total  log10-change:
                         energy  eigst   dens
iter:   1 14:18:29  -201.420234  -2.67
iter:   2 14:19:00  -201.429885  -3.46  -2.92
iter:   3 14:19:32  -201.422368c -3.88  -2.81
iter:   4 14:20:03  -201.405047c -4.58  -2.88
iter:   5 14:20:34  -201.404478c -4.84  -3.46
iter:   6 14:21:06  -201.404192c -4.82  -3.62
iter:   7 14:21:37  -201.404133c -5.48  -3.86
iter:   8 14:22:08  -201.404124c -5.94  -3.95
iter:   9 14:22:40  -201.404118c -5.82  -4.05c
iter:  10 14:23:11  -201.404272c -6.09  -4.21c
iter:  11 14:23:42  -201.404137c -6.46  -3.88
iter:  12 14:24:13  -201.404128c -7.17  -4.30c
iter:  13 14:24:45  -201.404126c -6.81  -4.39c
iter:  14 14:25:16  -201.404118c -6.99  -4.59c
iter:  15 14:25:47  -201.404115c -7.44c -4.73c

Converged after 15 iterations.

Dipole moment: (-0.403790, -0.318241, -0.176640) |e|*Ang

Energy contributions relative to reference atoms: (reference = -3516703.949422)

Kinetic:       -128.862378
Potential:      +49.027882
External:        +0.000000
XC:            -120.441983
Entropy (-ST):   -1.620551
Local:           -0.317361
--------------------------
Free energy:   -202.214390
Extrapolated:  -201.404115

Showing only first 2 kpts
 Kpt  Band  Eigenvalues  Occupancy
  0   205     -1.30368    1.47908
  0   206     -1.25654    1.27856
  0   207     -1.16412    0.82580
  0   208     -1.08281    0.47550

  1   205     -1.24402    1.21987
  1   206     -1.21718    1.08908
  1   207     -1.19576    0.98220
  1   208     -1.16931    0.85109


Fermi level: -1.19932

No gap

Forces in eV/Ang:
  0 Rh   -0.01577   -0.01408    0.10376
  1 Rh   -0.02021    0.00965    0.05449
  2 Rh    0.02011    0.00103    0.01762
  3 Rh    0.00283   -0.02452    0.06590
  4 Rh   -0.00150   -0.00280   -0.03900
  5 Rh   -0.00963    0.00823    0.04696
  6 Rh    0.01704    0.02198    0.02400
  7 Rh   -0.00072   -0.00546    0.03960
  8 Rh   -0.01009   -0.00252    0.03054
  9 Rh    0.05923   -0.01052    0.00069
 10 Rh   -0.00406   -0.00022   -0.01468
 11 Rh   -0.01089    0.05709    0.11172
 12 Rh    0.00643   -0.01733   -0.02598
 13 Rh    0.04214   -0.03618    0.13251
 14 Rh   -0.03287   -0.02038    0.10504
 15 Rh    0.02666    0.01823   -0.02833
 16 Rh    0.01823    0.05273   -0.00017
 17 Rh   -0.00645    0.01148   -0.02795
 18 Rh    0.00859   -0.01307    0.04945
 19 Rh    0.06579    0.02630    0.10895
 20 Rh    0.00132    0.09930    0.02384
 21 Rh    0.07237    0.03330    0.09386
 22 Rh   -0.21715   -0.15296   -0.56425
 23 Rh   -0.00104    0.00040   -0.14156
 24 Rh    0.09333   -0.04343    0.02941
 25 Rh    0.02363    0.06427   -0.25222
 26 Rh   -0.01394   -0.00488    0.00666
 27 O     0.23265    0.19153    0.18644
 28 C    -0.48543   -0.33121   -0.10115

System changes: positions 

Initializing position-dependent things.

Density initialized from wave functions
                                           
                                           
                                           
                                           
                                           
                                           
                     O                     
                    C                      
                Rh     Rh     Rh           
                  Rh                       
            Rh   Rh     RRh    Rh          
       Rh    RRh   RRh    Rh               
                                           
        Rh     Rh   RRh    Rh    Rh        
                                           
                Rh    Rh     Rh            
           Rh    Rh     Rh                 
                                           
                                           
                                           
                                           

Positions:
   0 Rh     1.341210    0.777949   12.048563    ( 0.0000,  0.0000,  0.0000)
   1 Rh     4.049584    0.784825   12.064444    ( 0.0000,  0.0000,  0.0000)
   2 Rh     6.793604    0.778139   12.044131    ( 0.0000,  0.0000,  0.0000)
   3 Rh     2.704234    3.114650   12.064963    ( 0.0000,  0.0000,  0.0000)
   4 Rh     5.414660    3.126073   12.042261    ( 0.0000,  0.0000,  0.0000)
   5 Rh     8.128830    3.116595   12.056151    ( 0.0000,  0.0000,  0.0000)
   6 Rh     4.070727    5.493275   12.046447    ( 0.0000,  0.0000,  0.0000)
   7 Rh     6.762936    5.480105   12.057477    ( 0.0000,  0.0000,  0.0000)
   8 Rh     9.477369    5.472214   12.063361    ( 0.0000,  0.0000,  0.0000)
   9 Rh     0.006151    1.563762   14.227252    ( 0.0000,  0.0000,  0.0000)
  10 Rh     2.746929    1.584275   14.265767    ( 0.0000,  0.0000,  0.0000)
  11 Rh     5.403715    1.580660   14.210418    ( 0.0000,  0.0000,  0.0000)
  12 Rh     1.356810    3.900328   14.207077    ( 0.0000,  0.0000,  0.0000)
  13 Rh     4.073485    3.892331   14.212756    ( 0.0000,  0.0000,  0.0000)
  14 Rh     6.758314    3.905347   14.222945    ( 0.0000,  0.0000,  0.0000)
  15 Rh     2.715235    6.258715   14.207359    ( 0.0000,  0.0000,  0.0000)
  16 Rh     5.420316    6.253772   14.230842    ( 0.0000,  0.0000,  0.0000)
  17 Rh     8.118887    6.261116   14.206088    ( 0.0000,  0.0000,  0.0000)
  18 Rh     0.002808   -0.001173   16.375936    ( 0.0000,  0.0000,  0.0000)
  19 Rh     2.716654   -0.007665   16.382936    ( 0.0000,  0.0000,  0.0000)
  20 Rh     5.417885   -0.004502   16.363882    ( 0.0000,  0.0000,  0.0000)
  21 Rh     1.355445    2.351650   16.379456    ( 0.0000,  0.0000,  0.0000)
  22 Rh     4.091139    2.366354   16.585265    ( 0.0000,  0.0000,  0.0000)
  23 Rh     6.804993    2.344488   16.398386    ( 0.0000,  0.0000,  0.0000)
  24 Rh     2.702043    4.699375   16.365239    ( 0.0000,  0.0000,  0.0000)
  25 Rh     5.436488    4.714059   16.419885    ( 0.0000,  0.0000,  0.0000)
  26 Rh     8.130562    4.696026   16.364471    ( 0.0000,  0.0000,  0.0000)
  27 O      5.069707    3.056136   19.351689    ( 0.0000,  0.0000,  0.0000)
  28 C      4.781350    2.872136   18.235910    ( 0.0000,  0.0000,  0.0000)

Unit cell:
           periodic     x           y           z      points  spacing
  1. axis:    yes    8.124657    0.000000    0.000000    36     0.1954
  2. axis:    yes    4.062328    7.036159    0.000000    36     0.1954
  3. axis:    yes    0.000000    0.000000   28.422503   144     0.1974

  Lengths:   8.124657   8.124657  28.422503
  Angles:   90.000000  90.000000  60.000000

Effective grid spacing dv^(1/3) = 0.2057

     iter     time        total  log10-change:
                         energy  eigst   dens
iter:   1 14:27:28  -202.059134  -1.21
iter:   2 14:28:00  -203.386979  -1.86  -2.15
iter:   3 14:28:31  -201.726774  -2.32  -1.89
iter:   4 14:29:03  -201.503490  -3.17  -2.30
iter:   5 14:29:34  -201.493444  -3.48  -2.78
iter:   6 14:30:06  -201.484260c -3.68  -2.88
iter:   7 14:30:37  -201.481620c -3.74  -3.05
iter:   8 14:31:09  -201.480773c -4.12  -3.17
iter:   9 14:31:40  -201.481411c -4.63  -3.26
iter:  10 14:32:11  -201.479916c -4.77  -3.23
iter:  11 14:32:43  -201.479435c -5.05  -3.39
iter:  12 14:33:14  -201.479369c -5.20  -3.56
iter:  13 14:33:46  -201.479237c -5.45  -3.65
iter:  14 14:34:18  -201.479170c -5.55  -3.80
iter:  15 14:34:49  -201.479300c -5.65  -3.89
iter:  16 14:35:20  -201.479115c -6.12  -3.78
iter:  17 14:35:52  -201.479106c -6.50  -4.03c
iter:  18 14:36:24  -201.479101c -6.54  -4.11c
iter:  19 14:36:55  -201.479102c -6.65  -4.21c
iter:  20 14:37:26  -201.479107c -6.67  -4.33c
iter:  21 14:37:58  -201.479112c -6.93  -4.41c
iter:  22 14:38:29  -201.479114c -7.29  -4.40c
iter:  23 14:39:01  -201.479101c -7.27  -4.41c
iter:  24 14:39:32  -201.479100c -7.42c -4.67c

Converged after 24 iterations.

Dipole moment: (-1.520038, -0.770869, -0.159065) |e|*Ang

Energy contributions relative to reference atoms: (reference = -3516703.949422)

Kinetic:       -127.699893
Potential:      +47.974999
External:        +0.000000
XC:            -120.633785
Entropy (-ST):   -1.612167
Local:           -0.314338
--------------------------
Free energy:   -202.285183
Extrapolated:  -201.479100

Showing only first 2 kpts
 Kpt  Band  Eigenvalues  Occupancy
  0   205     -1.28429    1.47773
  0   206     -1.23884    1.28467
  0   207     -1.14758    0.83791
  0   208     -1.06136    0.46680

  1   205     -1.21965    1.19432
  1   206     -1.18954    1.04624
  1   207     -1.17771    0.98711
  1   208     -1.15559    0.87716


Fermi level: -1.18029

No gap

Forces in eV/Ang:
  0 Rh    0.01692   -0.00787    0.07747
  1 Rh    0.05331    0.02585    0.03441
  2 Rh   -0.06747    0.03118    0.04302
  3 Rh    0.05846    0.03968    0.04462
  4 Rh   -0.01103   -0.00251    0.04545
  5 Rh   -0.05591    0.03672    0.05250
  6 Rh   -0.00557   -0.07412    0.04655
  7 Rh    0.00116   -0.05560    0.04234
  8 Rh    0.01547    0.00528    0.02882
  9 Rh    0.01467    0.02367    0.05746
 10 Rh   -0.07998   -0.05469   -0.00948
 11 Rh    0.07932   -0.06480   -0.03392
 12 Rh    0.00306    0.07644    0.06367
 13 Rh   -0.03182    0.08932   -0.03848
 14 Rh    0.08951    0.02348   -0.03706
 15 Rh   -0.04827   -0.02480    0.07963
 16 Rh    0.03175    0.03200    0.03872
 17 Rh    0.06608   -0.03522    0.05281
 18 Rh   -0.00944    0.01084    0.04196
 19 Rh    0.00493   -0.02370    0.04586
 20 Rh    0.08866   -0.09819   -0.03473
 21 Rh   -0.04316    0.02368    0.04479
 22 Rh    0.01446    0.04277   -0.11668
 23 Rh    0.07380   -0.03276   -0.06392
 24 Rh   -0.05948    0.12420   -0.04350
 25 Rh   -0.00711    0.05928   -0.09740
 26 Rh    0.07423    0.01893   -0.00034
 27 O    -0.02965    0.02917   -0.26064
 28 C    -0.21242   -0.21713    0.34636

System changes: positions 

Initializing position-dependent things.

Density initialized from wave functions
                                           
                                           
                                           
                                           
                                           
                                           
                     O                     
                    C                      
                Rh     Rh     Rh           
                  Rh                       
            Rh   Rh     RRh    Rh          
       Rh    RRh   RRh    Rh               
                                           
        Rh     Rh   RRh    Rh    Rh        
                Rh                         
                      Rh     Rh            
           Rh    Rh     Rh                 
                                           
                                           
                                           
                                           

Positions:
   0 Rh     1.340041    0.777027   12.054784    ( 0.0000,  0.0000,  0.0000)
   1 Rh     4.048590    0.785673   12.068336    ( 0.0000,  0.0000,  0.0000)
   2 Rh     6.794961    0.778327   12.045427    ( 0.0000,  0.0000,  0.0000)
   3 Rh     2.704772    3.113329   12.069511    ( 0.0000,  0.0000,  0.0000)
   4 Rh     5.414422    3.125864   12.040561    ( 0.0000,  0.0000,  0.0000)
   5 Rh     8.127972    3.116933   12.059539    ( 0.0000,  0.0000,  0.0000)
   6 Rh     4.071872    5.494545   12.048181    ( 0.0000,  0.0000,  0.0000)
   7 Rh     6.762596    5.479585   12.060450    ( 0.0000,  0.0000,  0.0000)
   8 Rh     9.476961    5.472123   12.066021    ( 0.0000,  0.0000,  0.0000)
   9 Rh     0.009601    1.563474   14.228596    ( 0.0000,  0.0000,  0.0000)
  10 Rh     2.747673    1.584663   14.267449    ( 0.0000,  0.0000,  0.0000)
  11 Rh     5.403339    1.583684   14.216043    ( 0.0000,  0.0000,  0.0000)
  12 Rh     1.357263    3.899781   14.206159    ( 0.0000,  0.0000,  0.0000)
  13 Rh     4.075812    3.890626   14.219598    ( 0.0000,  0.0000,  0.0000)
  14 Rh     6.757059    3.904451   14.228421    ( 0.0000,  0.0000,  0.0000)
  15 Rh     2.716515    6.259645   14.206481    ( 0.0000,  0.0000,  0.0000)
  16 Rh     5.421744    6.256754   14.232084    ( 0.0000,  0.0000,  0.0000)
  17 Rh     8.118914    6.261648   14.204944    ( 0.0000,  0.0000,  0.0000)
  18 Rh     0.003260   -0.001805   16.378895    ( 0.0000,  0.0000,  0.0000)
  19 Rh     2.720357   -0.006996   16.389268    ( 0.0000,  0.0000,  0.0000)
  20 Rh     5.418972   -0.000420   16.364250    ( 0.0000,  0.0000,  0.0000)
  21 Rh     1.358650    2.353848   16.384846    ( 0.0000,  0.0000,  0.0000)
  22 Rh     4.084513    2.362135   16.570269    ( 0.0000,  0.0000,  0.0000)
  23 Rh     6.807523    2.344194   16.391781    ( 0.0000,  0.0000,  0.0000)
  24 Rh     2.706113    4.698788   16.365851    ( 0.0000,  0.0000,  0.0000)
  25 Rh     5.438664    4.718980   16.408581    ( 0.0000,  0.0000,  0.0000)
  26 Rh     8.130732    4.696123   16.364320    ( 0.0000,  0.0000,  0.0000)
  27 O      5.080969    3.067038   19.333232    ( 0.0000,  0.0000,  0.0000)
  28 C      4.746202    2.848336   18.234434    ( 0.0000,  0.0000,  0.0000)

Unit cell:
           periodic     x           y           z      points  spacing
  1. axis:    yes    8.124657    0.000000    0.000000    36     0.1954
  2. axis:    yes    4.062328    7.036159    0.000000    36     0.1954
  3. axis:    yes    0.000000    0.000000   28.422503   144     0.1974

  Lengths:   8.124657   8.124657  28.422503
  Angles:   90.000000  90.000000  60.000000

Effective grid spacing dv^(1/3) = 0.2057

     iter     time        total  log10-change:
                         energy  eigst   dens
iter:   1 14:41:13  -201.616801  -1.86
iter:   2 14:41:44  -202.337847  -2.40  -2.46
iter:   3 14:42:16  -201.508550  -2.90  -2.07
iter:   4 14:42:47  -201.498810  -3.73  -2.89
iter:   5 14:43:19  -201.496833c -4.09  -3.16
iter:   6 14:43:50  -201.495273c -4.16  -3.29
iter:   7 14:44:22  -201.495024c -4.57  -3.50
iter:   8 14:44:53  -201.494853c -5.12  -3.59
iter:   9 14:45:25  -201.495509c -5.36  -3.72
iter:  10 14:45:56  -201.494871c -5.43  -3.51
iter:  11 14:46:27  -201.494760c -5.86  -3.75
iter:  12 14:46:59  -201.494728c -6.14  -3.97
iter:  13 14:47:30  -201.494695c -6.22  -4.06c
iter:  14 14:48:02  -201.494677c -6.26  -4.20c
iter:  15 14:48:33  -201.494680c -6.49  -4.28c
iter:  16 14:49:05  -201.494672c -7.07  -4.25c
iter:  17 14:49:36  -201.494664c -7.24  -4.36c
iter:  18 14:50:08  -201.494666c -7.34  -4.50c
iter:  19 14:50:39  -201.494670c -7.21  -4.62c
iter:  20 14:51:11  -201.494671c -7.40c -4.82c

Converged after 20 iterations.

Dipole moment: (-1.780375, -0.869936, -0.150410) |e|*Ang

Energy contributions relative to reference atoms: (reference = -3516703.949422)

Kinetic:       -126.467771
Potential:      +46.913046
External:        +0.000000
XC:            -120.825828
Entropy (-ST):   -1.607387
Local:           -0.310424
--------------------------
Free energy:   -202.298365
Extrapolated:  -201.494671

Showing only first 2 kpts
 Kpt  Band  Eigenvalues  Occupancy
  0   205     -1.27490    1.47745
  0   206     -1.22978    1.28587
  0   207     -1.13842    0.83870
  0   208     -1.05176    0.46577

  1   205     -1.20943    1.18997
  1   206     -1.17704    1.03034
  1   207     -1.17005    0.99540
  1   208     -1.14563    0.87398


Fermi level: -1.17097

No gap

Forces in eV/Ang:
  0 Rh    0.03138   -0.00251    0.06001
  1 Rh    0.07604    0.02524    0.01973
  2 Rh   -0.08729    0.03462    0.05095
  3 Rh    0.06861    0.06223    0.02639
  4 Rh   -0.01232   -0.00196    0.08038
  5 Rh   -0.06104    0.04319    0.04931
  6 Rh   -0.01572   -0.09542    0.05236
  7 Rh    0.00537   -0.06414    0.03901
  8 Rh    0.02503    0.00801    0.01842
  9 Rh   -0.00406    0.03355    0.06856
 10 Rh   -0.09904   -0.06698   -0.02086
 11 Rh    0.10170   -0.10426   -0.08353
 12 Rh    0.00664    0.09284    0.09139
 13 Rh   -0.05927    0.12741   -0.10057
 14 Rh    0.12852    0.03950   -0.09348
 15 Rh   -0.05641   -0.03003    0.10539
 16 Rh    0.03311    0.01998    0.04725
 17 Rh    0.07945   -0.04052    0.08129
 18 Rh   -0.00875    0.02113    0.03823
 19 Rh   -0.01605   -0.03401    0.02147
 20 Rh    0.10926   -0.13957   -0.03962
 21 Rh   -0.07553    0.01791    0.02764
 22 Rh    0.08210    0.08947    0.00544
 23 Rh    0.07657   -0.03570   -0.03678
 24 Rh   -0.08814    0.15891   -0.05044
 25 Rh   -0.01070    0.05559   -0.04925
 26 Rh    0.09066    0.02285    0.00561
 27 O    -0.25763   -0.14345   -0.54003
 28 C    -0.02264   -0.11735    0.53447

System changes: positions 

Initializing position-dependent things.

Density initialized from wave functions
                                           
                                           
                                           
                                           
                                           
                                           
                     O                     
                    C                      
                Rh     Rh     Rh           
                  Rh                       
            Rh   Rh     RRh    Rh          
       Rh    RRh   RRh    Rh               
                                           
        Rh     Rh   RRh    Rh    Rh        
                Rh           Rh            
                      Rh                   
           Rh    Rh     Rh                 
                                           
                                           
                                           
                                           

Positions:
   0 Rh     1.339773    0.776358   12.059921    ( 0.0000,  0.0000,  0.0000)
   1 Rh     4.049245    0.786691   12.071330    ( 0.0000,  0.0000,  0.0000)
   2 Rh     6.794419    0.779045   12.047176    ( 0.0000,  0.0000,  0.0000)
   3 Rh     2.706332    3.113528   12.073052    ( 0.0000,  0.0000,  0.0000)
   4 Rh     5.414036    3.125689   12.040906    ( 0.0000,  0.0000,  0.0000)
   5 Rh     8.126344    3.117864   12.062697    ( 0.0000,  0.0000,  0.0000)
   6 Rh     4.072380    5.493785   12.050254    ( 0.0000,  0.0000,  0.0000)
   7 Rh     6.762427    5.478141   12.063162    ( 0.0000,  0.0000,  0.0000)
   8 Rh     9.477145    5.472209   12.068186    ( 0.0000,  0.0000,  0.0000)
   9 Rh     0.011770    1.563911   14.230820    ( 0.0000,  0.0000,  0.0000)
  10 Rh     2.746564    1.583810   14.268406    ( 0.0000,  0.0000,  0.0000)
  11 Rh     5.404898    1.583824   14.218066    ( 0.0000,  0.0000,  0.0000)
  12 Rh     1.357698    3.901048   14.207199    ( 0.0000,  0.0000,  0.0000)
  13 Rh     4.076297    3.891778   14.222110    ( 0.0000,  0.0000,  0.0000)
  14 Rh     6.758517    3.904570   14.230305    ( 0.0000,  0.0000,  0.0000)
  15 Rh     2.716385    6.259742   14.207782    ( 0.0000,  0.0000,  0.0000)
  16 Rh     5.423293    6.259007   14.233889    ( 0.0000,  0.0000,  0.0000)
  17 Rh     8.120330    6.261307   14.205652    ( 0.0000,  0.0000,  0.0000)
  18 Rh     0.003418   -0.001837   16.381509    ( 0.0000,  0.0000,  0.0000)
  19 Rh     2.722514   -0.007247   16.393819    ( 0.0000,  0.0000,  0.0000)
  20 Rh     5.421658   -0.000300   16.363715    ( 0.0000,  0.0000,  0.0000)
  21 Rh     1.359354    2.355643   16.388877    ( 0.0000,  0.0000,  0.0000)
  22 Rh     4.081595    2.360943   16.561365    ( 0.0000,  0.0000,  0.0000)
  23 Rh     6.810825    2.343317   16.386840    ( 0.0000,  0.0000,  0.0000)
  24 Rh     2.707145    4.701315   16.365291    ( 0.0000,  0.0000,  0.0000)
  25 Rh     5.440049    4.723486   16.400406    ( 0.0000,  0.0000,  0.0000)
  26 Rh     8.132517    4.696633   16.364255    ( 0.0000,  0.0000,  0.0000)
  27 O      5.084066    3.071853   19.316829    ( 0.0000,  0.0000,  0.0000)
  28 C      4.721643    2.829955   18.235789    ( 0.0000,  0.0000,  0.0000)

Unit cell:
           periodic     x           y           z      points  spacing
  1. axis:    yes    8.124657    0.000000    0.000000    36     0.1954
  2. axis:    yes    4.062328    7.036159    0.000000    36     0.1954
  3. axis:    yes    0.000000    0.000000   28.422503   144     0.1974

  Lengths:   8.124657   8.124657  28.422503
  Angles:   90.000000  90.000000  60.000000

Effective grid spacing dv^(1/3) = 0.2057

     iter     time        total  log10-change:
                         energy  eigst   dens
iter:   1 14:52:52  -201.673250  -2.17
iter:   2 14:53:23  -203.203028  -2.33  -2.39
iter:   3 14:53:55  -201.511710  -2.80  -1.93
iter:   4 14:54:26  -201.511197  -3.61  -3.16
iter:   5 14:54:57  -201.509111c -4.30  -3.25
iter:   6 14:55:29  -201.508614c -4.53  -3.49
iter:   7 14:56:00  -201.508316c -5.02  -3.60
iter:   8 14:56:32  -201.508710c -5.21  -3.76
iter:   9 14:57:03  -201.508190c -5.32  -3.58
iter:  10 14:57:35  -201.508158c -5.99  -4.00
iter:  11 14:58:06  -201.508171c -6.26  -4.08c
iter:  12 14:58:38  -201.508142c -6.30  -4.15c
iter:  13 14:59:09  -201.508134c -6.27  -4.36c
iter:  14 14:59:41  -201.508132c -6.90  -4.50c
iter:  15 15:00:12  -201.508124c -7.24  -4.51c
iter:  16 15:00:43  -201.508122c -7.31  -4.65c
iter:  17 15:01:15  -201.508122c -7.74c -4.78c

Converged after 17 iterations.

Dipole moment: (-1.689302, -0.827138, -0.138420) |e|*Ang

Energy contributions relative to reference atoms: (reference = -3516703.949422)

Kinetic:       -124.773395
Potential:      +45.492710
External:        +0.000000
XC:            -121.126045
Entropy (-ST):   -1.603509
Local:           -0.299637
--------------------------
Free energy:   -202.309876
Extrapolated:  -201.508122

Showing only first 2 kpts
 Kpt  Band  Eigenvalues  Occupancy
  0   205     -1.26436    1.47799
  0   206     -1.21883    1.28465
  0   207     -1.12686    0.83442
  0   208     -1.04123    0.46630

  1   205     -1.19891    1.19075
  1   206     -1.16530    1.02505
  1   207     -1.16161    1.00660
  1   208     -1.13223    0.86063


Fermi level: -1.16029

No gap

Forces in eV/Ang:
  0 Rh    0.03674    0.00207    0.03883
  1 Rh    0.07557    0.01671    0.00729
  2 Rh   -0.07668    0.02709    0.05225
  3 Rh    0.05777    0.06550    0.00979
  4 Rh   -0.00936   -0.00058    0.09662
  5 Rh   -0.04807    0.03983    0.03997
  6 Rh   -0.01943   -0.08365    0.05213
  7 Rh    0.01049   -0.05428    0.03121
  8 Rh    0.02833    0.00883    0.00465
  9 Rh   -0.01167    0.03266    0.06148
 10 Rh   -0.08628   -0.05681   -0.02284
 11 Rh    0.08874   -0.09841   -0.09159
 12 Rh    0.01379    0.07871    0.09820
 13 Rh   -0.05832    0.11711   -0.11473
 14 Rh    0.12446    0.04167   -0.10532
 15 Rh   -0.03711   -0.01960    0.10093
 16 Rh    0.02915    0.01211    0.04421
 17 Rh    0.06995   -0.02890    0.09245
 18 Rh    0.00290    0.02922    0.04742
 19 Rh   -0.02322   -0.02489    0.01637
 20 Rh    0.10334   -0.13039   -0.01757
[...]
  22 Rh     4.026781    2.332151   16.500479    ( 0.0000,  0.0000,  0.0000)
  23 Rh     6.769369    2.330493   16.505606    ( 0.0000,  0.0000,  0.0000)
  24 Rh     2.671282    4.697919   16.428031    ( 0.0000,  0.0000,  0.0000)
  25 Rh     5.399484    4.702565   16.499841    ( 0.0000,  0.0000,  0.0000)
  26 Rh     8.132804    4.699153   16.430387    ( 0.0000,  0.0000,  0.0000)
  27 O      5.386007    3.124138   17.771063    ( 0.0000,  0.0000,  0.0000)

Unit cell:
           periodic     x           y           z      points  spacing
  1. axis:    yes    8.124657    0.000000    0.000000    36     0.1954
  2. axis:    yes    4.062328    7.036159    0.000000    36     0.1954
  3. axis:    yes    0.000000    0.000000   28.422503   144     0.1974

  Lengths:   8.124657   8.124657  28.422503
  Angles:   90.000000  90.000000  60.000000

Effective grid spacing dv^(1/3) = 0.2057

     iter     time        total  log10-change:
                         energy  eigst   dens
iter:   1 22:19:11  -191.805259  -3.51
iter:   2 22:19:42  -191.835540  -3.91  -3.15
iter:   3 22:20:14  -191.800002c -4.37  -2.75
iter:   4 22:20:45  -191.799380c -5.58  -3.53
iter:   5 22:21:17  -191.799321c -6.19  -3.88
iter:   6 22:21:48  -191.799276c -5.72  -3.98
iter:   7 22:22:20  -191.799252c -6.23  -4.28c
iter:   8 22:22:51  -191.799255c -6.86  -4.37c
iter:   9 22:23:23  -191.799255c -7.08  -4.40c
iter:  10 22:23:54  -191.799247c -7.18  -4.57c
iter:  11 22:24:25  -191.799267c -7.16  -4.58c
iter:  12 22:24:57  -191.799257c -7.81c -4.71c

Converged after 12 iterations.

Dipole moment: (0.738082, 0.018705, -0.109153) |e|*Ang

Energy contributions relative to reference atoms: (reference = -3515676.321306)

Kinetic:       -138.500158
Potential:      +60.302426
External:        +0.000000
XC:            -112.245616
Entropy (-ST):   -1.621026
Local:           -0.545395
--------------------------
Free energy:   -192.609770
Extrapolated:  -191.799257

Showing only first 2 kpts
 Kpt  Band  Eigenvalues  Occupancy
  0   203     -1.35825    1.52856
  0   204     -1.30718    1.32105
  0   205     -1.26001    1.09666
  0   206     -1.12160    0.46647

  1   203     -1.27788    1.18419
  1   204     -1.25639    1.07868
  1   205     -1.22395    0.91686
  1   206     -1.21203    0.85803


Fermi level: -1.24062

No gap

Forces in eV/Ang:
  0 Rh   -0.01304   -0.00838    0.01884
  1 Rh    0.00552    0.00684    0.00177
  2 Rh   -0.01379   -0.00035    0.01961
  3 Rh    0.01128    0.00625    0.01095
  4 Rh   -0.01335   -0.00372    0.01672
  5 Rh   -0.01827   -0.00110    0.00444
  6 Rh   -0.00059   -0.00864    0.02566
  7 Rh   -0.01810   -0.00928    0.00161
  8 Rh   -0.00105    0.00320   -0.00812
  9 Rh    0.02950    0.00138    0.00635
 10 Rh    0.02690    0.01045    0.00740
 11 Rh    0.00929    0.00484    0.00839
 12 Rh    0.00830   -0.00521   -0.00609
 13 Rh   -0.00002    0.00409    0.01825
 14 Rh   -0.00453   -0.01187    0.00048
 15 Rh    0.01481    0.01778   -0.02262
 16 Rh    0.01837    0.00669    0.00232
 17 Rh   -0.00279    0.01765   -0.01670
 18 Rh    0.01703   -0.01465    0.02502
 19 Rh    0.03157    0.00222    0.02143
 20 Rh    0.02173   -0.00452   -0.00816
 21 Rh    0.04152    0.02324    0.00944
 22 Rh   -0.01824   -0.04050   -0.01888
 23 Rh    0.04189    0.00307   -0.00421
 24 Rh   -0.00223    0.02179   -0.00583
 25 Rh    0.03083    0.07120    0.00179
 26 Rh    0.02429    0.00565    0.00079
 27 O     0.06634    0.02873    0.05237

System changes: positions, numbers 

Initialize ...

species:
  Rh:
    name: Rhodium
    id: 4e1d209aee696a641de1ffa1459b299f
    Z: 45.0
    valence: 15
    core: 30
    charge: 0.0
    file: /apps/Common/software/GPAW-setups/0.9.20000/Rh.PBE.gz
    compensation charges: {type: gauss,
                           rc: 0.38,
                           lmax: 2}
    cutoffs: {filter: 2.48,
              core: 2.35}
    valence states:
      #              energy  rcut
      - 5s(1.00)    -4.297   1.270
      - 4p(6.00)   -50.429   1.381
      - 5p(0.00)    -0.852   1.381
      - 4d(8.00)    -5.942   1.244
      -  s          22.915   1.270
      -  d          21.270   1.244
  
    # Using partial waves for Rh as LCAO basis

  O:
    name: Oxygen
    id: 32ecd46bf208036f09c70b0ec9a88b78
    Z: 8.0
    valence: 6
    core: 2
    charge: 0.0
    file: /apps/Common/software/GPAW-setups/0.9.20000/O.PBE.gz
    compensation charges: {type: gauss,
                           rc: 0.21,
                           lmax: 2}
    cutoffs: {filter: 1.17,
              core: 0.83}
    valence states:
      #              energy  rcut
      - 2s(2.00)   -23.961   0.688
      - 2p(4.00)    -9.029   0.598
      -  s           3.251   0.688
      -  p          18.182   0.598
      -  d           0.000   0.619
  
    # Using partial waves for O as LCAO basis

  C:
    name: Carbon
    id: 4aa54d4b901d75f77cc0ea3eec22967b
    Z: 6.0
    valence: 4
    core: 2
    charge: 0.0
    file: /apps/Common/software/GPAW-setups/0.9.20000/C.PBE.gz
    compensation charges: {type: gauss,
                           rc: 0.20,
                           lmax: 2}
    cutoffs: {filter: 1.14,
              core: 1.14}
    valence states:
      #              energy  rcut
      - 2s(2.00)   -13.751   0.635
      - 2p(2.00)    -5.284   0.635
      -  s          13.461   0.635
      -  p          21.927   0.635
      -  d           0.000   0.635
  
    # Using partial waves for C as LCAO basis

Reference energy: -3516703.949422  # eV

Spin-paired calculation

Convergence criteria:
 Maximum [total energy] change in last 3 cyles: 0.0005 eV / electron
 Maximum integral of absolute [dens]ity change: 0.0001 electrons / valence electron
 Maximum integral of absolute [eigenst]ate change: 4e-08 eV^2 / valence electron
 Maximum number of scf [iter]ations: 333
 (Square brackets indicate name in SCF output, whereas a 'c' in
 the SCF output indicates the quantity has converged.)

Symmetries present (total): 1

  ( 1  0  0)
  ( 0  1  0)
  ( 0  0  1)

16 k-points: 4 x 4 x 1 Monkhorst-Pack grid
8 k-points in the irreducible part of the Brillouin zone
       k-points in crystal coordinates                weights
   0:     0.12500000   -0.37500000    0.00000000          2/16
   1:     0.12500000   -0.12500000    0.00000000          2/16
   2:     0.12500000    0.12500000    0.00000000          2/16
   3:     0.12500000    0.37500000    0.00000000          2/16
   4:     0.37500000   -0.37500000    0.00000000          2/16
   5:     0.37500000   -0.12500000    0.00000000          2/16
   6:     0.37500000    0.12500000    0.00000000          2/16
   7:     0.37500000    0.37500000    0.00000000          2/16

Wave functions: Uniform real-space grid
  Kinetic energy operator: 8*3+1=25 point O(h^6) finite-difference Laplacian
  ScaLapack parameters: grid=1x1, blocksize=None
  Wavefunction extrapolation:
    Improved wavefunction reuse through dual PAW basis 

Occupation numbers: Fermi-Dirac:
  width: 0.1000  # eV
 

Eigensolver
   Davidson(niter=2) 

Densities:
  Coarse grid: 36*36*144 grid
  Fine grid: 72*72*288 grid
  Total Charge: 0.000000 

Density mixing:
  Method: separate
  Backend: pulay
  Linear mixing parameter: 0.05
  old densities: 5
  Damping of long wavelength oscillations: 50 

Hamiltonian:
  XC and Coulomb potentials evaluated on a 72*72*288 grid
  Using the PBE Exchange-Correlation functional
  Interpolation: tri-quintic (5. degree polynomial)
  Poisson solver: FastPoissonSolver using
    Stencil: 8*3+1=25 point O(h^6) finite-difference Laplacian
    FFT axes: [0, 1, 2]
    FST axes: []
 

XC parameters: PBE with 2 nearest neighbor stencil

Memory estimate:
  Process memory now: 569.81 MiB
  Calculator: 270.97 MiB
    Density: 13.64 MiB
      Arrays: 2.49 MiB
      Localized functions: 10.19 MiB
      Mixer: 0.96 MiB
    Hamiltonian: 2.44 MiB
      Arrays: 1.62 MiB
      XC: 0.00 MiB
      Poisson: 0.00 MiB
      vbar: 0.81 MiB
    Wavefunctions: 254.90 MiB
      Arrays psit_nG: 193.46 MiB
      Eigensolver: 59.09 MiB
      Projections: 0.53 MiB
      Projectors: 1.82 MiB

Total number of cores used: 30
Parallelization over k-points: 2
Domain decomposition: 1 x 3 x 5

Number of atoms: 29
Number of atomic orbitals: 332
Number of bands in calculation: 253
Number of valence electrons: 415
Bands to converge: occupied

... initialized

Initializing position-dependent things.

Density initialized from atomic densities
Creating initial wave functions:
  253 bands from LCAO basis set

                                           
                                           
                                           
                                           
                                           
                                           
                    O                      
                   C                       
                Rh     Rh     Rh           
                  Rh                       
            Rh   Rh     RRh    Rh          
       Rh    RRh   RRh    Rh               
                                           
        Rh     Rh   RRh    Rh    Rh        
                                           
                Rh    Rh     Rh            
           Rh    Rh     Rh                 
                                           
                                           
                                           
                                           

Positions:
   0 Rh     1.368387    0.793057   12.111147    ( 0.0000,  0.0000,  0.0000)
   1 Rh     4.088080    0.799729   12.131129    ( 0.0000,  0.0000,  0.0000)
   2 Rh     6.803474    0.788733   12.117707    ( 0.0000,  0.0000,  0.0000)
   3 Rh     2.735573    3.143264   12.130513    ( 0.0000,  0.0000,  0.0000)
   4 Rh     5.436677    3.139422   12.130752    ( 0.0000,  0.0000,  0.0000)
   5 Rh     8.148768    3.141249   12.118698    ( 0.0000,  0.0000,  0.0000)
   6 Rh     4.084320    5.498341   12.117249    ( 0.0000,  0.0000,  0.0000)
   7 Rh     6.793848    5.488306   12.117835    ( 0.0000,  0.0000,  0.0000)
   8 Rh     9.504398    5.488501   12.124888    ( 0.0000,  0.0000,  0.0000)
   9 Rh     0.028949    1.580741   14.280756    ( 0.0000,  0.0000,  0.0000)
  10 Rh     2.765527    1.597869   14.306563    ( 0.0000,  0.0000,  0.0000)
  11 Rh     5.431305    1.587240   14.292301    ( 0.0000,  0.0000,  0.0000)
  12 Rh     1.381067    3.921214   14.286843    ( 0.0000,  0.0000,  0.0000)
  13 Rh     4.088756    3.913348   14.288636    ( 0.0000,  0.0000,  0.0000)
  14 Rh     6.793574    3.925416   14.283044    ( 0.0000,  0.0000,  0.0000)
  15 Rh     2.732277    6.270027   14.291062    ( 0.0000,  0.0000,  0.0000)
  16 Rh     5.443679    6.272644   14.281217    ( 0.0000,  0.0000,  0.0000)
  17 Rh     8.146839    6.274877   14.287820    ( 0.0000,  0.0000,  0.0000)
  18 Rh     0.026640    0.019324   16.447230    ( 0.0000,  0.0000,  0.0000)
  19 Rh     2.728557    0.010912   16.446667    ( 0.0000,  0.0000,  0.0000)
  20 Rh     5.447305    0.003882   16.451941    ( 0.0000,  0.0000,  0.0000)
  21 Rh     1.373594    2.361919   16.446355    ( 0.0000,  0.0000,  0.0000)
  22 Rh     4.114874    2.382679   16.658695    ( 0.0000,  0.0000,  0.0000)
  23 Rh     6.835476    2.367458   16.445038    ( 0.0000,  0.0000,  0.0000)
  24 Rh     2.723936    4.720938   16.450974    ( 0.0000,  0.0000,  0.0000)
  25 Rh     5.463610    4.739633   16.446641    ( 0.0000,  0.0000,  0.0000)
  26 Rh     8.153348    4.710319   16.449195    ( 0.0000,  0.0000,  0.0000)
  27 O      4.644529    2.740654   19.577232    ( 0.0000,  0.0000,  0.0000)
  28 C      4.409990    2.589051   18.452720    ( 0.0000,  0.0000,  0.0000)

Unit cell:
           periodic     x           y           z      points  spacing
  1. axis:    yes    8.124657    0.000000    0.000000    36     0.1954
  2. axis:    yes    4.062328    7.036159    0.000000    36     0.1954
  3. axis:    yes    0.000000    0.000000   28.422503   144     0.1974

  Lengths:   8.124657   8.124657  28.422503
  Angles:   90.000000  90.000000  60.000000

Effective grid spacing dv^(1/3) = 0.2057

     iter     time        total  log10-change:
                         energy  eigst   dens
iter:   1 22:26:06  -214.565728
iter:   2 22:26:38  -213.523056  -0.49  -1.38
iter:   3 22:27:10  -212.857699  -1.21  -1.37
iter:   4 22:27:41  -206.254915  -1.21  -1.37
iter:   5 22:28:13  -202.367029  -1.13  -1.52
iter:   6 22:28:44  -201.896901  -1.47  -1.79
iter:   7 22:29:16  -201.887664  -1.77  -2.02
iter:   8 22:29:47  -201.857379c -2.46  -2.18
iter:   9 22:30:19  -201.737174c -2.35  -2.21
iter:  10 22:30:51  -201.761070c -2.61  -2.43
iter:  11 22:31:22  -201.686058c -2.63  -2.47
iter:  12 22:31:55  -201.678240c -2.98  -2.82
iter:  13 22:32:26  -201.677759c -3.26  -2.96
iter:  14 22:32:57  -201.677839c -3.42  -3.00
iter:  15 22:33:29  -201.677177c -3.67  -3.10
iter:  16 22:34:01  -201.678287c -3.85  -3.22
iter:  17 22:34:32  -201.677989c -4.16  -3.29
iter:  18 22:35:04  -201.677952c -4.45  -3.36
iter:  19 22:35:36  -201.677751c -4.38  -3.45
iter:  20 22:36:07  -201.677796c -4.82  -3.88
iter:  21 22:36:39  -201.677784c -5.16  -3.97
iter:  22 22:37:10  -201.677798c -5.51  -4.08c
iter:  23 22:37:42  -201.677790c -5.66  -4.02c
iter:  24 22:38:14  -201.677759c -6.05  -4.13c
iter:  25 22:38:45  -201.677760c -6.28  -4.29c
iter:  26 22:39:17  -201.677761c -6.47  -4.35c
iter:  27 22:39:48  -201.677769c -6.60  -4.43c
iter:  28 22:40:20  -201.677775c -6.87  -4.57c
iter:  29 22:40:52  -201.677770c -7.25  -4.55c
iter:  30 22:41:23  -201.677776c -7.27  -4.68c
iter:  31 22:41:55  -201.677775c -7.44c -4.79c

Converged after 31 iterations.

Dipole moment: (-2.081950, -1.404913, -0.131974) |e|*Ang

Energy contributions relative to reference atoms: (reference = -3516703.949422)

Kinetic:       -127.857646
Potential:      +47.696935
External:        +0.000000
XC:            -120.428561
Entropy (-ST):   -1.599825
Local:           -0.288591
--------------------------
Free energy:   -202.477688
Extrapolated:  -201.677775

Showing only first 2 kpts
 Kpt  Band  Eigenvalues  Occupancy
  0   205     -1.26464    1.50586
  0   206     -1.20839    1.26915
  0   207     -1.12299    0.85006
  0   208     -1.03462    0.46802

  1   205     -1.19140    1.18868
  1   206     -1.15834    1.02568
  1   207     -1.14880    0.97800
  1   208     -1.11400    0.80646


Fermi level: -1.15321

No gap
Timing:                                      incl.     excl.
-------------------------------------------------------------------
Density initialized from wave functions:    24.890    24.888   0.1% |
 Symmetrize density:                         0.002     0.002   0.0% |
Forces:                                   1385.178  1385.178   3.8% |-|
Hamiltonian:                                 9.771     0.006   0.0% |
 Atomic:                                     0.014     0.013   0.0% |
  XC Correction:                             0.000     0.000   0.0% |
 Calculate atomic Hamiltonians:              0.014     0.014   0.0% |
 Communicate:                                4.730     4.730   0.0% |
 Hartree integrate/restrict:                 0.117     0.117   0.0% |
 Initialize Hamiltonian:                     0.000     0.000   0.0% |
 Poisson:                                    2.413     0.086   0.0% |
  Communicate from 1D:                       0.462     0.462   0.0% |
  Communicate from 2D:                       0.529     0.529   0.0% |
  Communicate to 1D:                         0.426     0.426   0.0% |
  Communicate to 2D:                         0.539     0.539   0.0% |
  FFT 1D:                                    0.119     0.119   0.0% |
  FFT 2D:                                    0.251     0.251   0.0% |
 XC 3D grid:                                 2.451     2.451   0.0% |
 vbar:                                       0.027     0.027   0.0% |
LCAO initialization:                        15.560     0.822   0.0% |
 LCAO eigensolver:                           4.978     0.005   0.0% |
  Calculate projections:                     0.000     0.000   0.0% |
  DenseAtomicCorrection:                     0.001     0.001   0.0% |
  Distribute overlap matrix:                 3.943     3.943   0.0% |
  Orbital Layouts:                           1.013     1.013   0.0% |
  Potential matrix:                          0.001     0.001   0.0% |
  Sum over cells:                            0.016     0.016   0.0% |
 LCAO to grid:                               7.743     7.743   0.0% |
 Set positions (LCAO WFS):                   2.017     1.774   0.0% |
  Basic WFS set positions:                   0.003     0.003   0.0% |
  Basis functions set positions:             0.000     0.000   0.0% |
  P tci:                                     0.002     0.002   0.0% |
  ST tci:                                    0.109     0.109   0.0% |
  mktci:                                     0.129     0.129   0.0% |
Redistribute:                                0.051     0.051   0.0% |
SCF-cycle:                               32971.734   188.002   0.5% |
 Davidson:                               32298.369 10749.030  29.7% |-----------|
  Apply hamiltonian:                       783.095   783.095   2.2% ||
  Subspace diag:                          2943.517     0.521   0.0% |
   calc_h_matrix:                         1554.293   749.221   2.1% ||
    Apply hamiltonian:                     805.071   805.071   2.2% ||
   diagonalize:                            163.325   163.325   0.5% |
   rotate_psi:                            1225.378  1225.378   3.4% ||
  calc. matrices:                        13414.025  4700.991  13.0% |----|
   Apply hamiltonian:                     8713.034  8713.034  24.1% |---------|
  diagonalize:                            2023.069  2023.069   5.6% |-|
  rotate_psi:                             2385.633  2385.633   6.6% |--|
 Density:                                   50.939     0.023   0.0% |
  Atomic density matrices:                   8.524     8.524   0.0% |
  Mix:                                       7.820     7.820   0.0% |
  Multipole moments:                         1.875     1.875   0.0% |
  Pseudo density:                           32.697    32.663   0.1% |
   Symmetrize density:                       0.035     0.035   0.0% |
 Hamiltonian:                              204.719     0.100   0.0% |
  Atomic:                                    0.267     0.263   0.0% |
   XC Correction:                            0.004     0.004   0.0% |
  Calculate atomic Hamiltonians:             0.264     0.264   0.0% |
  Communicate:                              89.554    89.554   0.2% |
  Hartree integrate/restrict:                2.337     2.337   0.0% |
  Poisson:                                  46.275     1.524   0.0% |
   Communicate from 1D:                      9.303     9.303   0.0% |
   Communicate from 2D:                      9.505     9.505   0.0% |
   Communicate to 1D:                        8.337     8.337   0.0% |
   Communicate to 2D:                       10.351    10.351   0.0% |
   FFT 1D:                                   2.338     2.338   0.0% |
   FFT 2D:                                   4.918     4.918   0.0% |
  XC 3D grid:                               65.258    65.258   0.2% |
  vbar:                                      0.664     0.664   0.0% |
 Orthonormalize:                           229.704     0.031   0.0% |
  calc_s_matrix:                            16.865    16.865   0.0% |
  inverse-cholesky:                        182.318   182.318   0.5% |
  projections:                               0.009     0.009   0.0% |
  rotate_psi_s:                             30.481    30.481   0.1% |
Set symmetry:                                0.005     0.005   0.0% |
Other:                                    1739.123  1739.123   4.8% |-|
-------------------------------------------------------------------
Total:                                             36146.312 100.0%

Memory usage: 572.91 MiB
Date: Sun Feb 26 22:41:55 2023
